/*--------------------------------*- C++ -*----------------------------------*\
  =========                 |
  \\      /  F ield         | OpenFOAM: The Open Source CFD Toolbox
   \\    /   O peration     | Website:  https://openfoam.org
    \\  /    A nd           | Version:  7
     \\/     M anipulation  |
\*---------------------------------------------------------------------------*/
FoamFile
{
    version     2.0;
    format      ascii;
    class       volVectorField;
    location    "0";
    object      grad(Phi);
}
// * * * * * * * * * * * * * * * * * * * * * * * * * * * * * * * * * * * * * //

dimensions      [0 1 -1 0 0 0 0];

internalField   nonuniform List<vector> 
12685
(
(-0.3333354581198535 3.683923785284088e-06 -1.614820746208893e-06)
(-1.000009634268511 3.741817097058243e-06 -1.624563964242033e-06)
(-1.000016298466959 3.856413429481652e-06 -1.643561705675662e-06)
(-1.000023320724858 4.025190042611381e-06 -1.670825829262761e-06)
(-1.000030835622187 4.244014054854956e-06 -1.704849397348316e-06)
(-1.000038967479883 4.506745000298886e-06 -1.743582751037524e-06)
(-1.00004782520746 4.804746279063495e-06 -1.784411893893406e-06)
(-1.000057495666846 5.126353495477159e-06 -1.824148163585684e-06)
(-1.000068035482933 5.456373036061362e-06 -1.859040933087078e-06)
(-1.000079461460955 5.775714906342006e-06 -1.884827318650188e-06)
(-1.000091740088476 6.06129570845934e-06 -1.896833803529401e-06)
(-0.3333354002265425 1.653522051325852e-05 -1.645480321827919e-06)
(-1.000009375534047 1.679887420369397e-05 -1.656154528153936e-06)
(-1.00001587340754 1.732103747764665e-05 -1.677013528688489e-06)
(-1.00002273932392 1.809076785441741e-05 -1.70706465116778e-06)
(-1.000030113289751 1.909004254141423e-05 -1.74478636841182e-06)
(-1.000038126381547 2.029191290464631e-05 -1.788094963864959e-06)
(-1.000046895794717 2.165821595800924e-05 -1.834310316145811e-06)
(-1.000056518226711 2.313704958423224e-05 -1.880130167354005e-06)
(-1.000067061440816 2.466033507131367e-05 -1.921625658657621e-06)
(-1.000078554076947 2.614193635697145e-05 -1.954273831497149e-06)
(-1.000090974102615 2.747696210025915e-05 -1.973045055398121e-06)
(-0.3333352823507265 2.741424870755793e-05 -1.706893750208892e-06)
(-1.000008848451547 2.786397306087106e-05 -1.719476775522906e-06)
(-1.000015006573308 2.875557590309436e-05 -1.744155946229955e-06)
(-1.000021551719794 3.007222991824318e-05 -1.779937398146381e-06)
(-1.000028634477138 3.178588780983204e-05 -1.8252819093726e-06)
(-1.000036399306466 3.385402430122757e-05 -1.878052108066124e-06)
(-1.00004498007078 3.621552925414656e-05 -1.935451750928632e-06)
(-1.000054493547733 3.878606193019614e-05 -1.993967264773032e-06)
(-1.00006503059616 4.145337940908434e-05 -2.049325585857179e-06)
(-1.000076644833926 4.407341844681059e-05 -2.096487685370173e-06)
(-1.000089339016491 4.646821709486384e-05 -2.129701717906263e-06)
(-0.3333351004103079 3.806620660951059e-05 -1.79921763008455e-06)
(-1.000008034206852 3.871692715762263e-05 -1.814780196402166e-06)
(-1.000013665150683 4.000898053524438e-05 -1.845432688931016e-06)
(-1.000019709012013 4.192191880969519e-05 -1.890200145125174e-06)
(-1.000026331495368 4.442090812517551e-05 -1.947547221791103e-06)
(-1.000033696740102 4.745181513188254e-05 -2.015294694281325e-06)
(-1.000041963757088 5.093487197216365e-05 -2.090516421672189e-06)
(-1.000051280376556 5.475727039394578e-05 -2.169426513558284e-06)
(-1.0000617740843 5.876532882176379e-05 -2.247272635199087e-06)
(-1.000073539239261 6.275729186056016e-05 -2.318259019969519e-06)
(-1.000086620467028 6.647834636574984e-05 -2.375532300034379e-06)
(-0.3333348485370283 4.837985533434608e-05 -1.922606369849335e-06)
(-1.000006905677619 4.925133940414366e-05 -1.942356265712288e-06)
(-1.000011801581656 5.098512861900771e-05 -1.981423135788399e-06)
(-1.000017139792204 5.356060394401401e-05 -2.038898611079407e-06)
(-1.000023104580815 5.694116056531585e-05 -2.113313944989683e-06)
(-1.000029885342619 6.106736615185674e-05 -2.202513809404151e-06)
(-1.000037674615518 6.584789721886241e-05 -2.303492230492497e-06)
(-1.000046663090883 7.114853322098821e-05 -2.412198603682831e-06)
(-1.000057030574694 7.677986231069386e-05 -2.523329703959119e-06)
(-1.000068931816382 8.248494270146621e-05 -2.630135284920829e-06)
(-1.000082476303655 8.792898706877488e-05 -2.7242813168873e-06)
(-0.3333345194209295 5.822449137227172e-05 -2.077114540747943e-06)
(-1.000005428933568 5.934005271424069e-05 -2.102436871403022e-06)
(-1.000009355886143 6.156464787698812e-05 -2.152734163190442e-06)
(-1.000013752980067 6.488235393087307e-05 -2.227253447787933e-06)
(-1.00001882473316 6.92620113955657e-05 -2.324717998118683e-06)
(-1.000024790003449 7.46482389342162e-05 -2.443146371801244e-06)
(-1.000031882590019 8.094915544409884e-05 -2.579606890701133e-06)
(-1.000040348411464 8.802083768255624e-05 -2.729910022603375e-06)
(-1.00005043767482 9.564895683622484e-05 -2.888250207643616e-06)
(-1.000062390114503 0.0001035287946931085 -3.046825438138168e-06)
(-1.000076411260707 0.0001112460329375511 -3.195488518512951e-06)
(-0.333334104829464 6.744592118401741e-05 -2.262565874751228e-06)
(-1.000003565521115 6.883053904171994e-05 -2.29505623578504e-06)
(-1.00000625928044 7.159912150367373e-05 -2.359849164385932e-06)
(-1.000009442428686 7.574694569179019e-05 -2.456493933998396e-06)
(-1.000013338695812 8.12581513636167e-05 -2.584121496708085e-06)
(-1.000018198198571 8.809458822156565e-05 -2.741199506464581e-06)
(-1.00002430201677 9.618003212263934e-05 -2.925186069767227e-06)
(-1.000031963289491 0.0001053792813769935 -3.132072626940413e-06)
(-1.000041522617683 0.0001154720005906995 -3.355814735979783e-06)
(-1.000053334740281 0.0001261220208443882 -3.587670101047757e-06)
(-1.000067742726265 0.0001368443638278816 -3.815500210339659e-06)
(-0.3333335963423561 7.586389084135462e-05 -2.47839009430486e-06)
(-1.000001275733248 7.754162751227869e-05 -2.51987584123065e-06)
(-1.000002439479493 8.090636198732075e-05 -2.602930561358762e-06)
(-1.000004093950207 8.59728399498215e-05 -2.727630485860072e-06)
(-1.000006477090631 9.275332639413492e-05 -2.893854235169035e-06)
(-1.00000986812269 0.0001012446437846926 -3.100972238652836e-06)
(-1.000014597896863 0.0001114090626925803 -3.347388277245917e-06)
(-1.000021056442996 0.0001231476900680485 -3.62990083563529e-06)
(-1.000029694935352 0.0001362651027307928 -3.94285556173835e-06)
(-1.000041017751266 0.0001504246718306845 -4.27707974429047e-06)
(-1.000055558528421 0.0001650957581071923 -4.618635731706992e-06)
(-0.3333329863383522 8.327158428844676e-05 -2.723431432535496e-06)
(-0.9999985230499709 8.526222075966333e-05 -2.775974692781273e-06)
(-0.9999978280680017 8.926746054349643e-05 -2.881574050269479e-06)
(-0.9999975954642788 9.533147944917895e-05 -3.041157232310117e-06)
(-0.9999980668919771 0.0001035105247129134 -3.255854188308966e-06)
(-0.9999995424622723 0.0001138591261766738 -3.526635736971433e-06)
(-1.000002398970486 0.0001264087030796721 -3.853751084501114e-06)
(-1.000007107249453 0.0001411359531817705 -4.235895313528215e-06)
(-1.00001424563592 0.0001579179420656555 -4.669027021009247e-06)
(-1.000024504084905 0.000176470906826154 -5.144763810925148e-06)
(-1.000038670107906 0.0001962711471341641 -5.648328273452245e-06)
(-0.3333322692513757 8.943790222337705e-05 -2.99573695727864e-06)
(-0.9999952798569943 9.175279334971989e-05 -3.061611465069838e-06)
(-0.9999923702208035 9.642656113184619e-05 -3.194517539016862e-06)
(-0.9999898508860375 0.0001035440609293838 -3.396680051218639e-06)
(-0.9999879494439029 0.000113223961674347 -3.671188776303238e-06)
(-0.999986969944323 0.0001256059995986544 -4.021630036130185e-06)
(-0.9999873210698582 0.0001408296830791577 -4.451468574900272e-06)
(-0.9999895472040099 0.0001590002553273351 -4.963056976457632e-06)
(-0.9999943599817076 0.0001801362428781596 -5.556109935965137e-06)
(-1.000002664546197 0.0002040916483680988 -6.225453146707625e-06)
(-1.0000155693374 0.000230445688542913 -6.957874368126725e-06)
(-0.3333314430776014 9.411326357211537e-05 -3.29233860096094e-06)
(-0.9999915343910606 9.675055361268999e-05 -3.373971490301924e-06)
(-0.9999860368004216 0.0001020945202672151 -3.539315146432707e-06)
(-0.9999807980637361 0.000110282355911373 -3.792474329183683e-06)
(-0.9999760049533077 0.0001215149479918412 -4.139447273108117e-06)
(-0.9999719367408674 0.0001360481453267507 -4.587840952933938e-06)
(-0.9999690047147578 0.0001541757634293545 -5.146315009390114e-06)
(-0.9999678006896539 0.0001761985251862442 -5.823564554968227e-06)
(-0.9999691542428796 0.0002023701731870277 -6.626559787757882e-06)
(-0.9999741946392398 0.0002328082918578995 -7.557658183077955e-06)
(-0.9999844059777232 0.0002673537022321867 -8.610141200352978e-06)
(-0.3333354682110436 3.65216922541361e-06 -7.201683084606852e-06)
(-1.000009678919644 3.709098298720879e-06 -7.244815875126187e-06)
(-1.00001637033807 3.821766898504085e-06 -7.328900759101359e-06)
(-1.000023415939665 3.98765697706686e-06 -7.449529695458329e-06)
(-1.000030948655263 4.202650763396365e-06 -7.599983204603833e-06)
(-1.000039091085904 4.460643065584744e-06 -7.771127523550487e-06)
(-1.000047950371583 4.753065770302117e-06 -7.951322711976191e-06)
(-1.000057611608389 5.068372134431316e-06 -8.126382044155946e-06)
(-1.000068129752334 5.391553141720417e-06 -8.279634601650734e-06)
(-1.000079520174879 5.703788160893409e-06 -8.392152286934765e-06)
(-1.000091748348473 5.982362626166797e-06 -8.443207184807471e-06)
(-0.333335411281971 1.639217852389404e-05 -7.338001403844333e-06)
(-1.000009424523134 1.665142037188255e-05 -7.38524948708382e-06)
(-1.000015952500053 1.716475713964272e-05 -7.477560233900496e-06)
(-1.000022844613867 1.79212552384732e-05 -7.610502544118199e-06)
(-1.00003023917613 1.890294203166221e-05 -7.777288054027017e-06)
(-1.000038265463394 2.008300515354828e-05 -7.968626812197865e-06)
(-1.000047038777979 2.142356475154383e-05 -8.172579967987197e-06)
(-1.000056653877332 2.287322348060181e-05 -8.374451829375312e-06)
(-1.000067176628295 2.436471427147452e-05 -8.556777337997233e-06)
(-1.000078633960652 2.581310685867428e-05 -8.699474349721356e-06)
(-1.000091002517552 2.71151851618524e-05 -8.780239726360845e-06)
(-0.3333352953831479 2.717540681773654e-05 -7.611038483066148e-06)
(-1.000008906341031 2.761753675484252e-05 -7.666722666376929e-06)
(-1.000015100503204 2.849392470771761e-05 -7.77591354120158e-06)
(-1.000021677754773 2.978771584727374e-05 -7.93416818718709e-06)
(-1.000028786905347 3.147088434118919e-05 -8.134610414049402e-06)
(-1.000036570463185 3.350105329147357e-05 -8.367700531188201e-06)
(-1.000045160153255 3.581749476877523e-05 -8.620971943858151e-06)
(-1.000054670458869 3.833661939234307e-05 -8.878779350729247e-06)
(-1.000065189868956 4.094746357052887e-05 -9.12212180441065e-06)
(-1.000076769703989 4.350794145757665e-05 -9.328625427072082e-06)
(-1.000089410722463 4.584292441123259e-05 -9.472791518551047e-06)
(-0.3333351165286792 3.773108164439871e-05 -8.021453272361499e-06)
(-1.000008106005246 3.837066794964987e-05 -8.090301905738831e-06)
(-1.00001378232096 3.964036900860894e-05 -8.225879059472312e-06)
(-1.000019867654234 4.151960406817418e-05 -8.42381417126753e-06)
(-1.000026525838686 4.397342978412757e-05 -8.677231485618997e-06)
(-1.000033918852966 4.69477407030182e-05 -8.976384633849307e-06)
(-1.000042203211878 5.036309479855545e-05 -9.308206882607753e-06)
(-1.00005152390853 5.410751813528227e-05 -9.655821224516866e-06)
(-1.000062005306229 5.80289295668554e-05 -9.998081160587397e-06)
(-1.000073738499812 6.192823219697251e-05 -1.030924690075033e-05)
(-1.000086764969537 6.555462448876143e-05 -1.055894239923497e-05)
(-0.3333348689922792 4.794812263497753e-05 -8.569877140335591e-06)
(-1.000006997053667 4.880444421262443e-05 -8.657219491350293e-06)
(-1.000011951567085 5.050771382864034e-05 -8.829950871997548e-06)
(-1.000017344693997 5.303696756309149e-05 -9.083977297087767e-06)
(-1.000023358768712 5.63551988235212e-05 -9.412690623806987e-06)
(-1.00003018079817 6.040266800999553e-05 -9.806414590891456e-06)
(-1.000038000375823 6.508806024019244e-05 -1.0251686386786e-05)
(-1.000047004624101 7.027778205515027e-05 -1.073041067972863e-05)
(-1.000057369154894 7.578405786778896e-05 -1.121895746234379e-05)
(-1.000069244009067 8.135306273038277e-05 -1.168732730235913e-05)
(-1.000082733728191 8.665512651506706e-05 -1.209857816413776e-05)
(-0.333334545647626 5.76963399976371e-05 -9.256481144202316e-06)
(-1.000005546414052 5.879210811787765e-05 -9.368423181497444e-06)
(-1.00000954979761 6.097673601113125e-05 -9.590718593736105e-06)
(-1.000014020169239 6.42335897684811e-05 -9.919933011853655e-06)
(-1.000019160138239 6.853057823486024e-05 -1.035026527436759e-05)
(-1.00002518599155 7.381135222628309e-05 -1.08727510468999e-05)
(-1.000032328097833 7.998330965808273e-05 -1.147418522586487e-05)
(-1.000040827910903 8.69024619678525e-05 -1.213577641689191e-05)
(-1.000050930025554 9.435563187576422e-05 -1.28315878082929e-05)
(-1.000062867431164 0.0001020411959609114 -1.352689217575408e-05)
(-1.000076838016813 0.0001095507464423662 -1.417668070926289e-05)
(-0.3333341384801967 6.682251094813903e-05 -1.008039602251782e-05)
(-1.000003716657654 6.81820177850235e-05 -1.022396448201413e-05)
(-1.000006510085435 7.089970924223366e-05 -1.051019793182999e-05)
(-1.000009790851773 7.496957422192808e-05 -1.093695656467593e-05)
(-1.000013781006255 8.037395756677049e-05 -1.150017682480719e-05)
(-1.000018728066747 8.707260874984981e-05 -1.219279010280212e-05)
(-1.000024909266082 9.498722889711446e-05 -1.300319921714646e-05)
(-1.000032632301883 0.0001039810813638904 -1.391327408337236e-05)
(-1.000042230420902 0.0001138335958441596 -1.489586758051438e-05)
(-1.0000540488945 0.000124210732904473 -1.591194299043873e-05)
(-1.000068419274716 0.0001346334029788122 -1.690756648084993e-05)
(-0.333333639309737 7.514790327922678e-05 -1.103899063132762e-05)
(-1.00000146921576 7.679448633801676e-05 -1.122222443414013e-05)
(-1.000002762241173 8.009582511103739e-05 -1.158895670076354e-05)
(-1.000004545920915 8.506452375423011e-05 -1.213931488094219e-05)
(-1.000007057103711 9.170974167682629e-05 -1.287244205554231e-05)
(-1.000010572720219 0.0001000244124980123 -1.378512042777695e-05)
(-1.000015419625219 0.0001099664706161187 -1.486974689733502e-05)
(-1.000021981543956 0.0001214328226799568 -1.611152509135388e-05)
(-1.000030700374014 0.0001342249336451219 -1.748475736113591e-05)
(-1.00004206762403 0.0001480056155314107 -1.894820810067016e-05)
(-1.000056600099229 0.0001622483287948565 -2.043971365228716e-05)
(-0.333333040758155 8.2467848985246e-05 -1.212702682940827e-05)
(-0.9999987687358228 8.442059577262745e-05 -1.235898776496337e-05)
(-0.9999982400480186 8.834838791749186e-05 -1.282502967659987e-05)
(-0.9999981769352075 9.429206316013975e-05 -1.352895234737345e-05)
(-0.9999988211175111 0.0001023028799793655 -1.447528224494428e-05)
(-1.000000471337808 0.0001124288185270214 -1.566765949567333e-05)
(-1.0000035008559 0.0001246934354743876 -1.710634059709713e-05)
(-1.000008373838854 0.0001390647998915645 -1.878452246091504e-05)
(-1.00001565762805 0.0001554116361628389 -2.068315211680025e-05)
(-1.00002602549935 0.0001734439695759703 -2.2763923534588e-05)
(-1.000040241334429 0.000192636972824012 -2.496036244497147e-05)
(-0.333332337478545 8.855406430008386e-05 -1.333572677463602e-05)
(-0.9999955886768267 9.082376261071456e-05 -1.362639490493676e-05)
(-0.9999928907737855 9.540471335744977e-05 -1.421263641801793e-05)
(-0.9999905914288523 0.0001023768361538837 -1.510385211456972e-05)
(-0.9999889203483439 0.0001118512367033197 -1.63130122585349e-05)
(-0.9999881821647245 0.0001239573414952841 -1.785498899774869e-05)
(-0.9999887836438549 0.000138821592695848 -1.974378260735748e-05)
(-0.9999912633432672 0.0001565336977558123 -2.198811431358483e-05)
(-0.9999963212043294 0.0001770950759012464 -2.45846918284261e-05)
(-1.000004842287368 0.0002003430446113616 -2.75083402756277e-05)
(-1.000017903692503 0.0002258443006029064 -3.069826661020084e-05)
(-0.3333315276259528 9.316043853413442e-05 -1.465181476283538e-05)
(-0.9999919180867655 9.574491353880891e-05 -1.501183024472124e-05)
(-0.9999866869744752 0.0001009798632578552 -1.5740749297103e-05)
(-0.9999817304118618 0.0001089955149442546 -1.685609373754085e-05)
(-0.9999772406121695 0.0001199818441439685 -1.838337199083193e-05)
(-0.999973500981815 0.0001341793359088686 -2.035473647710527e-05)
(-0.9999709244996392 0.0001518614452602489 -2.280642260478208e-05)
(-0.9999701003556488 0.000173303159569649 -2.577414715052472e-05)
(-0.9999718482811946 0.0001987273075418905 -2.928525372823509e-05)
(-0.9999772762746486 0.0002282168923692931 -3.334595459547224e-05)
(-0.9999878303279711 0.0002615784962800564 -3.79217123699027e-05)
(-0.3333354879020196 3.589799232391528e-06 -1.178863718739986e-05)
(-1.000009766029675 3.644851031658888e-06 -1.185821266431206e-05)
(-1.000016510491987 3.753767601644167e-06 -1.19937904097562e-05)
(-1.000023601488819 3.914042123298589e-06 -1.218815155357927e-05)
(-1.000031168705653 4.121589277872292e-06 -1.243030160494607e-05)
(-1.00003933136723 4.37037644385187e-06 -1.270531376511715e-05)
(-1.000048193149642 4.651973411817802e-06 -1.299419332024468e-05)
(-1.00005783570416 4.955067215206601e-06 -1.327382862072317e-05)
(-1.00006831074497 5.265012575250639e-06 -1.351711215546614e-05)
(-1.000079630875416 5.5635163391799e-06 -1.369332939580621e-05)
(-1.000091759631494 5.828582763101096e-06 -1.376892010898929e-05)
(-0.3333354328502182 1.611124527967081e-05 -1.201044037332588e-05)
(-1.00000952007712 1.636189931275562e-05 -1.208663459267273e-05)
(-1.000016106705349 1.685805995332859e-05 -1.22354373720583e-05)
(-1.000023049756305 1.758882084512688e-05 -1.244958318137344e-05)
(-1.000030484204172 1.853632150305985e-05 -1.271795270714812e-05)
(-1.000038535791029 1.967403371816438e-05 -1.302534996220085e-05)
(-1.000047316113485 2.096465068213143e-05 -1.335227874638324e-05)
(-1.000056916145415 2.235778094528131e-05 -1.367478716047263e-05)
(-1.000067398071284 2.378775903988379e-05 -1.396447073580716e-05)
(-1.000078785520135 2.517201774754347e-05 -1.418874499933548e-05)
(-1.000091052605324 2.641060689745332e-05 -1.431151321966089e-05)
(-0.3333353207993294 2.670638784296746e-05 -1.245463812174036e-05)
(-1.000009019215 2.713374019869259e-05 -1.254439561238325e-05)
(-1.000015283570455 2.798053140518067e-05 -1.272032724559898e-05)
(-1.00002192322727 2.92298714472671e-05 -1.297512769631456e-05)
(-1.000029083492779 3.085380354139746e-05 -1.329750580801441e-05)
(-1.000036903038051 3.281027512880286e-05 -1.367182446812845e-05)
(-1.000045509402415 3.503934423543238e-05 -1.407769269046946e-05)
(-1.000055012595803 3.745892934237095e-05 -1.448958265499593e-05)
(-1.000065496508167 3.996060044997313e-05 -1.487657454162402e-05)
(-1.000077008027559 4.240615401895907e-05 -1.520236538787875e-05)
(-1.000089544092749 4.462598932652993e-05 -1.542570984124728e-05)
(-0.3333351479486501 3.707312371181695e-05 -1.312218305468859e-05)
(-1.000008245933559 3.76910554460431e-05 -1.323309398005115e-05)
(-1.000014010574101 3.891729901406285e-05 -1.345140700766076e-05)
(-1.000020176484169 4.073104508872663e-05 -1.376989775959343e-05)
(-1.00002690380049 4.30971821936409e-05 -1.417722293933959e-05)
(-1.000034350250335 4.596171842718991e-05 -1.465734436260188e-05)
(-1.000042667459271 4.924591772770266e-05 -1.518882429944411e-05)
(-1.000051994889201 5.2839509374625e-05 -1.574406590570003e-05)
(-1.000062450846607 5.659360617604736e-05 -1.628861442949052e-05)
(-1.000074120131258 6.031435063258434e-05 -1.678068885556972e-05)
(-1.000087038202417 6.375878162567789e-05 -1.717117553543466e-05)
(-0.3333349088448425 4.710071932789709e-05 -1.40139258889065e-05)
(-1.0000071750397 4.792757093996506e-05 -1.415453115727709e-05)
(-1.000012243580812 4.957154481566309e-05 -1.443247322902605e-05)
(-1.00001774334409 5.201105228769262e-05 -1.484091633144626e-05)
(-1.000023852819441 5.520837556982629e-05 -1.536886306017149e-05)
(-1.000030754302516 5.910327236691147e-05 -1.600027597568728e-05)
(-1.000038631611467 6.360456250620323e-05 -1.671294465506782e-05)
(-1.000047664907354 6.858000820031404e-05 -1.747716183600774e-05)
(-1.00005802166691 7.384515899699888e-05 -1.825432811437381e-05)
(-1.000069842852109 7.915238152378371e-05 -1.899568722585321e-05)
(-1.000083223533096 8.418204381910304e-05 -1.964150361518538e-05)
(-0.3333345967142421 5.66600253875117e-05 -1.512991591541166e-05)
(-1.000005775108069 5.771735254533886e-05 -1.53099830984836e-05)
(-1.000009927092753 5.982439199359024e-05 -1.566739287474129e-05)
(-1.000014539653415 6.296319683229963e-05 -1.619628413178419e-05)
(-1.000019811580411 6.709997211595832e-05 -1.68868255158584e-05)
(-1.000025954063398 7.217663572545155e-05 -1.772394647470922e-05)
(-1.000033190723438 7.809937429836829e-05 -1.868562943675457e-05)
(-1.00004175429271 8.472430058592523e-05 -1.974079224353896e-05)
(-1.000051878473284 9.184072849954814e-05 -2.084685802778821e-05)
(-1.000063783246436 9.915329987331175e-05 -2.194722626937013e-05)
(-1.00007765186579 0.0001062652950380991 -2.296903467185847e-05)
(-0.3333342039600719 6.559975064401868e-05 -1.646846527471049e-05)
(-1.000004010673091 6.691053060148283e-05 -1.669921242739108e-05)
(-1.000006997736525 6.952951774996677e-05 -1.715902052004956e-05)
(-1.000010467763967 7.344830018451992e-05 -1.784397993925651e-05)
(-1.000014639380548 7.864589684025713e-05 -1.874685133878563e-05)
(-1.000019754900334 8.507820564851441e-05 -1.985533292172242e-05)
(-1.000026083946606 9.266320039147382e-05 -2.114963373500694e-05)
(-1.000033923553153 0.0001012615416784436 -2.259930445337108e-05)
(-1.000043592667622 0.0001106526464109692 -2.415934559846403e-05)
(-1.00005541828557 0.000120507086493582 -2.576575951915372e-05)
(-1.00006970988686 0.0001303576511368923 -2.733096876164524e-05)
(-0.333333722860935 7.374416607897068e-05 -1.802498803438185e-05)
(-1.000001845340961 7.533035339779555e-05 -1.831922242958277e-05)
(-1.00000338932317 7.850885768023766e-05 -1.890778972544886e-05)
(-1.000005423274324 8.32882728891705e-05 -1.979023191171436e-05)
(-1.000008181674947 8.96719672089929e-05 -2.096415879017891e-05)
(-1.000011936759847 9.764567191350464e-05 -2.242302503196638e-05)
(-1.000017007387408 0.00010715938054906 -2.41528842616195e-05)
(-1.00002376484669 0.000118102468534165 -2.612792529918597e-05)
(-1.000032632928469 0.0001302711294610681 -2.830463523497795e-05)
(-1.00004407824171 0.0001433279776956727 -3.061458257992077e-05)
(-1.000058585280475 0.0001567553622872092 -3.295614187911355e-05)
(-0.3333331465018554 8.089282185430596e-05 -1.979064460946722e-05)
(-0.9999992459814896 8.277218705776686e-05 -2.016277176631138e-05)
(-0.9999990398170333 8.655007797919719e-05 -2.090997176106241e-05)
(-0.999999304654439 9.226106588577903e-05 -2.203740600909178e-05)
(-1.000000281981523 9.994707700267096e-05 -2.35508799862244e-05)
(-1.000002267486994 0.0001096439051577744 -2.545420431250904e-05)
(-1.000005627149986 0.0001213605946657203 -2.774514953435854e-05)
(-1.000010811804241 0.0001350494857730313 -3.040955590290534e-05)
(-1.000018367158461 0.0001505644385102478 -3.341311308095762e-05)
(-1.000028934052744 0.000167605055644948 -3.669040274855898e-05)
(-1.000043230833841 0.0001856462172848962 -4.013112666509886e-05)
(-0.3333324699508004 8.682294329132033e-05 -2.175085166250305e-05)
(-0.9999961880848391 8.900520649568495e-05 -2.221670053682196e-05)
(-0.9999939004443421 9.340670866775369e-05 -2.315562798571591e-05)
(-0.9999920262753009 0.0001000980930609961 -2.458138856804798e-05)
(-0.9999907988356748 0.0001091762972946776 -2.651268479940041e-05)
(-0.9999905232421843 0.0001207515270107427 -2.89703690780189e-05)
(-0.9999916018067924 0.0001349260267140553 -3.197286359530714e-05)
(-0.999994561002846 0.0001517610011845251 -3.552900090397749e-05)
(-1.000000077358597 0.0001712269233520306 -3.962725413188384e-05)
(-1.000008996462936 0.0001931316876264689 -4.422018602637128e-05)
(-1.000022334505031 0.0002170214332635199 -4.920308844064325e-05)
(-0.3333316916597204 9.129518977024627e-05 -2.388375822999847e-05)
(-0.9999926622161139 9.37775910272443e-05 -2.446016334049062e-05)
(-0.999987946930468 9.880201383039032e-05 -2.562633573206344e-05)
(-0.9999835350658117 0.0001064855912886745 -2.74085030743168e-05)
(-0.9999796285475738 0.0001169978510353611 -2.984454482167355e-05)
(-0.9999765177575749 0.0001305506208004742 -3.298158251831782e-05)
(-0.9999746176758123 0.0001473796128723675 -3.687155882609999e-05)
(-0.9999745109076033 0.0001677124965664407 -4.15635440571554e-05)
(-0.999976996472019 0.000191715889177324 -4.709094554043256e-05)
(-0.9999831395428329 0.000219410961182387 -5.345117700670933e-05)
(-0.9999943106780405 0.0002505450349981064 -6.057490421722346e-05)
(-0.3333355162512534 3.499019406364785e-06 -1.606302829365033e-05)
(-1.000009891399769 3.551378395805224e-06 -1.615577948001355e-05)
(-1.000016712060491 3.654915424533588e-06 -1.633640726033264e-05)
(-1.000023868040546 3.807144662637591e-06 -1.659507136766129e-05)
(-1.000031484287553 4.00403452616155e-06 -1.691680425369525e-05)
(-1.000039675116609 4.239665691407935e-06 -1.728132036992907e-05)
(-1.00004853919054 4.50581630939692e-06 -1.766286067125902e-05)
(-1.000058153202897 4.79151980936621e-06 -1.803016011306301e-05)
(-1.00006856423528 5.082662693389725e-06 -1.834664870159487e-05)
(-1.000079780975973 5.361715482266024e-06 -1.85710147291447e-05)
(-1.000091764277826 5.607715002131601e-06 -1.865826595295393e-05)
(-0.3333354638922645 1.570239184367495e-05 -1.636258203209292e-05)
(-1.00000965755574 1.594073088995172e-05 -1.646411929401683e-05)
(-1.000016328411091 1.641227255966266e-05 -1.666229321891908e-05)
(-1.000023344361893 1.710617280492599e-05 -1.694718290942417e-05)
(-1.00003083550601 1.800476624991285e-05 -1.73036277549258e-05)
(-1.000038922443935 1.908197621114375e-05 -1.771094993495665e-05)
(-1.000047711409363 2.030136897523955e-05 -1.814268452455274e-05)
(-1.000057287933321 2.161404965939078e-05 -1.856640930928345e-05)
(-1.000067708941771 2.29566996572395e-05 -1.89437949147157e-05)
(-1.000078993397511 2.425017672402786e-05 -1.923102127033495e-05)
(-1.000091111900269 2.539922436772795e-05 -1.937972407571468e-05)
(-0.3333353573585568 2.602395904149909e-05 -1.696236920327116e-05)
(-1.000009181519052 2.643013238934347e-05 -1.708190184997897e-05)
(-1.000015546618577 2.723452758512932e-05 -1.731604923431107e-05)
(-1.000022275546855 2.842024717697447e-05 -1.765479716865784e-05)
(-1.000029508484147 2.995949731499089e-05 -1.808269729612672e-05)
(-1.000037378513884 3.181077337677253e-05 -1.857840979687549e-05)
(-1.000046007117092 3.391535830310502e-05 -1.911419306731518e-05)
(-1.000055497872215 3.619343783478608e-05 -1.965543941896062e-05)
(-1.000065928108216 3.854031474492821e-05 -2.0160394482838e-05)
(-1.000077338451263 4.082342817790553e-05 -2.05802407461566e-05)
(-1.000089720522161 4.288113129846698e-05 -2.085976438956077e-05)
(-0.3333351931100319 3.611610502840525e-05 -1.786344030169684e-05)
(-1.000008446987198 3.670302756386697e-05 -1.801101555365395e-05)
(-1.000014338296304 3.786707495434516e-05 -1.830131250518859e-05)
(-1.000020619392163 3.958718012464496e-05 -1.872435548624827e-05)
(-1.00002744497981 4.182809548725053e-05 -1.926452457731426e-05)
(-1.000034966582946 4.453613021304652e-05 -1.989981468803874e-05)
(-1.000043328744906 4.763372669236437e-05 -2.060093784738493e-05)
(-1.000052662976879 5.101323969780565e-05 -2.133037137025574e-05)
(-1.000063078951428 5.453054193793602e-05 -2.204150885184703e-05)
(-1.000074652580957 5.799943457907023e-05 -2.26781406933441e-05)
(-1.000087410930717 6.118826665146854e-05 -2.317456798112715e-05)
(-0.333334966076867 4.586868503064775e-05 -1.906659600306354e-05)
(-1.000007430549127 4.66533804828194e-05 -1.925349260804509e-05)
(-1.000012662466016 4.821258560916415e-05 -1.962269708524274e-05)
(-1.000018314526322 5.052392453475103e-05 -2.016464083727859e-05)
(-1.000024559534058 5.354882472641244e-05 -2.086399967901332e-05)
(-1.000031572882679 5.722654439388431e-05 -2.169855389251908e-05)
(-1.000039530007607 6.146636920512091e-05 -2.263772982255637e-05)
(-1.00004860105697 6.613831549096003e-05 -2.364091605089708e-05)
(-1.000058941913334 7.106301985526632e-05 -2.465572101059387e-05)
(-1.00007068072655 7.600200612323219e-05 -2.561644613855203e-05)
(-1.000083899355472 8.065020098091393e-05 -2.644318690377851e-05)
(-0.3333346699797307 5.515413849055424e-05 -2.057145169574963e-05)
(-1.000006103086617 5.6156545373831e-05 -2.081053301894835e-05)
(-1.000010467752252 5.815281203114265e-05 -2.128474662746753e-05)
(-1.000015283153046 6.112327388896335e-05 -2.198565113688785e-05)
(-1.000020742359951 6.503194751772427e-05 -2.289921654503817e-05)
(-1.000027049038468 6.981861467503243e-05 -2.400416524401283e-05)
(-1.000034416973808 7.538816739671715e-05 -2.526975705577657e-05)
(-1.000043066326229 8.159738568558338e-05 -2.665307216145797e-05)
(-1.000053215260795 8.82397209100993e-05 -2.809593860295601e-05)
(-1.000065065399832 9.502933537142154e-05 -2.952180365951023e-05)
(-1.000078779578095 0.0001015866575406756 -3.083307366932565e-05)
(-0.3333342978056135 6.382404339522209e-05 -2.237519023386744e-05)
(-1.000004431875588 6.506530562067075e-05 -2.268118648372285e-05)
(-1.000007695737501 6.754358393257227e-05 -2.329048566053608e-05)
(-1.000011435390835 7.124727116414331e-05 -2.419698589247223e-05)
(-1.000015864193272 7.615100524693862e-05 -2.53897095743151e-05)
(-1.0000212166628 8.220570595840492e-05 -2.685051993398063e-05)
(-1.000027751236597 8.932471497136149e-05 -2.855095078610581e-05)
(-1.000035749503456 9.736583641339883e-05 -3.044811175327998e-05)
(-1.000045509963648 0.0001061094694509987 -3.24797292592308e-05)
(-1.000057333789919 0.0001152338281542598 -3.455858052470616e-05)
(-1.000071499652621 0.000124289613371298 -3.656691076134807e-05)
(-0.3333338424715788 7.170707468073811e-05 -2.447102040888414e-05)
(-1.000002383546081 7.320722845127787e-05 -2.486069685066549e-05)
(-1.000004285786708 7.621091132570262e-05 -2.563954504837138e-05)
(-1.000006675731732 8.072133246761499e-05 -2.680567175731418e-05)
(-1.000009783925156 8.673414057769328e-05 -2.835394836970266e-05)