/*--------------------------------*- C++ -*----------------------------------*\
  =========                 |
  \\      /  F ield         | OpenFOAM: The Open Source CFD Toolbox
   \\    /   O peration     | Website:  https://openfoam.org
    \\  /    A nd           | Version:  7
     \\/     M anipulation  |
\*---------------------------------------------------------------------------*/
FoamFile
{
    version     2.0;
    format      ascii;
    class       volScalarField;
    location    "0";
    object      mag(grad(Phi));
}
// * * * * * * * * * * * * * * * * * * * * * * * * * * * * * * * * * * * * * //

dimensions      [0 1 -1 0 0 0 0];

internalField   nonuniform List<scalar> 
12685
(
0.3333354581441217
1.000009634276831
1.000016298475745
1.000023320734355
1.000030835632646
1.000038967491558
1.000047825220594
1.000057495681649
1.000068035499546
1.00007946147941
1.000091740108642
0.3333354006407216
1.000009375676518
1.000015873558953
1.000022739489011
1.000030113473483
1.000038126589018
1.000046896030927
1.000056518496125
1.000067061746708
1.00007855442053
1.000090974482018
0.3333352834824017
1.000008848841223
1.000015006988265
1.000021552173538
1.00002863498396
1.000036399881256
1.000044980728406
1.000054494301859
1.000065031457395
1.000076645807282
1.00008934009831
0.3333351025887063
1.000008034957993
1.000013665952734
1.000019709892506
1.000026332483847
1.000033697867933
1.000041965056399
1.000051281878011
1.0000617758134
1.000073541211042
1.000086622679343
0.3333348520534725
1.000006906892345
1.000011802883345
1.000017141228627
1.000023106204159
1.000029887209601
1.000037676786062
1.000046665624731
1.000057033525283
1.000068935221489
1.0000824801728
0.33333452451252
1.000005430696389
1.000009357783545
1.000013755087378
1.00001882713443
1.000024792792544
1.000031885869624
1.000040352288868
1.000050442253121
1.000062395477916
1.00007641745318
0.3333341116605554
1.000003567892561
1.000006261846425
1.000009445300476
1.00001334200055
1.000018202082585
1.000024306646235
1.000031968846615
1.000041529289928
1.000053342699674
1.000067752096099
0.3333336049845577
1.000001278742771
1.000002442755792
1.000004097649577
1.00000648139638
1.000009873252686
1.000014604108365
1.000021064032101
1.000029704226938
1.000041029073739
1.000055572166633
0.3333329967507236
0.9999985266886525
0.9999978320565019
0.9999976000129596
0.9999980722545022
0.9999995489504442
1.000002406967473
1.000007117218032
1.000014258115681
1.000024519668747
1.000038689384294
0.333332281263583
0.9999952840709885
0.9999923748749823
0.999989856252547
0.9999879558605518
0.9999869778409461
0.9999873309963916
0.9999895598569987
0.9999943762217672
1.00000268539222
1.0000155959138
0.3333314563798954
0.9999915390771269
0.9999860420184035
0.9999808041521434
0.9999760123449939
0.9999719460062004
0.9999690166134518
0.9999678162300711
0.9999691747423108
0.9999742217683489
0.9999844417543488
0.3333354683088468
1.000009678952767
1.000016370372229
1.000023415975362
1.000030948692972
1.000039091126047
1.000047950414488
1.00005761165425
1.000068129801142
1.000079520226356
1.000091748402006
0.3333354117657926
1.000009424689038
1.000015952675322
1.000022844803409
1.000030239385027
1.000038265696798
1.000047039040847
1.000056654173973
1.000067176961701
1.000078634331622
1.000091002923678
0.3333352965777868
1.000008906751781
1.000015100939382
1.000021678229892
1.000028787433626
1.000036571059332
1.000045160831832
1.000054671233092
1.000065190748853
1.000076770693895
1.000089411818019
0.3333351187606346
1.00000810677412
1.000013783140461
1.000019868551635
1.000026526843137
1.000033919995261
1.000042204523365
1.000051525418882
1.000062007039781
1.000073740470359
1.000086767173796
0.3333348725509607
1.000006998282069
1.000011952881568
1.000017346141691
1.000023360400928
1.000030182670438
1.000038002546517
1.000047007151036
1.00005737208927
1.00006924738629
1.000082737555618
0.3333345507694325
1.000005548186182
1.000009551702664
1.000014022281389
1.000019162539977
1.000025188774646
1.000032331362221
1.000040831760403
1.00005093455914
1.000062872728522
1.000076844117516
0.3333341453304736
1.000003719034303
1.000006512654035
1.000009793721772
1.000013784302323
1.000018731931826
1.000024913861796
1.000032637804526
1.000042237010611
1.000054056734824
1.000068428480096
0.3333336479633289
1.000001472227421
1.000002765515987
1.000004549612566
1.000007061391868
1.000010577817622
1.000015425781991
1.000021989046546
1.000030709534757
1.00004207875591
1.000056613469623
0.3333330511801803
0.9999987723756181
0.9999982440329852
0.9999981814722286
0.999998826455224
1.000000477780662
1.000003508776412
1.00000838368471
1.000015669918142
1.000026040799455
1.000040260199681
0.3333323495080766
0.9999955928941625
0.9999928954258478
0.9999905967834741
0.9999889267368214
0.9999881900069287
0.9999887934745909
0.999991275836514
0.9999963371879245
1.000004862734291
1.000017929666053
0.3333315409663392
0.9999919227830252
0.9999866921968967
0.999981736494048
0.9999772479791328
0.9999735101912638
0.9999709362909978
0.9999701157052535
0.9999718684568468
0.9999773028727039
0.9999878652590786
0.333335488129806
1.000009766106626
1.000016510570956
1.000023601570753
1.0000311687914
1.000039331457489
1.000048193244882
1.000057835804528
1.000068310850179
1.000079630984638
1.000091759743261
0.3333354334559487
1.000009520284017
1.000016106922296
1.000023049988479
1.000030484456835
1.000038536069382
1.00004731642237
1.000056916488831
1.000067398451691
1.000078785937577
1.000091053056452
0.3333353221018454
1.000009019661797
1.000015284042806
1.000021923738628
1.000029084057154
1.000036903669744
1.000045510115351
1.000055013402318
1.000065497417189
1.000077009042178
1.000089545207365
0.3333351502685498
1.000008246731417
1.000014011421837
1.000020177408464
1.000026904829642
1.000034351413954
1.000042668787145
1.000051996409067
1.000062452580577
1.000074122090819
1.000087040382243
0.3333349124671272
1.000007176288392
1.000012244913613
1.000017744806765
1.000023854461485
1.000030756177062
1.000038633773815
1.000047667411569
1.000058024559906
1.000069846164845
1.000083227268988
0.3333346018731317
1.000005776890903
1.000009929004947
1.000014541766726
1.000019813974149
1.000025956825129
1.000033193947663
1.000041758076505
1.000051882907709
1.000063788402636
1.000077657775276
0.3333342108218604
1.000004013051023
1.0000070003009
1.000010470620468
1.000014642648811
1.000019758716526
1.000026088463376
1.000033928935285
1.000043599081184
1.000055425878066
1.000069718756291
0.3333337315055781
1.000001848346084
1.000003392583732
1.000005426938599
1.000008185915191
1.000011941778522
1.000017013420552
1.000023772161947
1.000032641814038
1.000044088981317
1.000058598108899
0.3333331569048384
0.9999992496103784
0.9999990437811086
0.9999993091533179
1.000000287253553
1.000002273821831
1.000005634899036
1.00001082138569
1.000018379051286
1.000028948771139
1.000043248870573
0.3333324819678158
0.9999961922926094
0.9999939050748685
0.9999920315872797
0.9999908051469261
0.9999905309523641
0.9999916114205214
0.9999945731497677
1.000000092803085
1.000009016090396
1.000022359264101
0.3333317050176543
0.9999926669124165
0.9999879521398043
0.9999835411111149
0.9999796358373193
0.9999765268234124
0.9999746292162361
0.9999745258354885
0.9999770159587367
0.9999831650423616
0.9999943438992958
0.3333355166566468
1.000009891536578
1.000016712200608
1.000023868185488
1.000031484438653
1.000039675274913
1.000048539356672
1.00005815337691
1.000068564416484
1.000079781162774
1.000091764467598
0.3333354646637083
1.000009657818325
1.000016328684584
1.0000233446518
1.000030835817794
1.000038922782821
1.000047711779997
1.000057288339237
1.000067709384679
1.000078993876425
1.000091112410569
0.3333353588060006
1.000009182014219
1.000015547139351
1.000022276106544
1.000029509096406
1.0000373791924
1.000046007874859
1.000055498720319
1.000065929054052
1.000077339496232
1.000089721659019
0.3333351955452316
1.000008447822945
1.000014339180718
1.000020620351016
1.000027446040137
1.00003496777264
1.000043330091533
1.000052664505466
1.000063080681022
1.000074654519929
1.000087413071062
0.3333349697780559
1.000007431822735
1.00001266382075
1.000018316005935
1.000024561185409
1.000031574755472
1.000039532152813
1.000048603523435
1.000058944742096
1.000070683942576
1.000083902957019
0.3333346751774552
1.000006104879924
1.000010469669627
1.000015285262725
1.000020744736666
1.000027051763814
1.000034420134668
1.00004307001033
1.000053219548382
1.000065070350565
1.000078785212915
0.33333430466683
1.000004434249542
1.000007698289772
1.000011438221637
1.000015867415028
1.000021220402085
1.000027755633506
1.000035754706867
1.000045516120444
1.00005734102607
1.000071508044545
0.3333338510826686
1.00000238653475
1.000004289019439
1.000006679348946
1.000009788088495
1.000013880226134
1.00001926269116
1.00002628861167
1.000035355756443
1.000046895435289
1.000061346917858
0.3333333080532343
0.9999999316434283
1.000000185558365
1.000000916595904
1.000002365111671
1.000004821571785
1.000008640677076
1.000014253423582
1.000022174110651
1.000032997332854
1.000047377502615
0.3333326711032888
0.9999970478067728
0.9999953445028493
0.9999940736185993
0.9999934722647552
0.9999938448559977
0.9999955858004753
0.9999992027431446
1.000005337455586
1.000014778579188
1.00002845618904
0.3333319389629155
0.9999937275815601
0.9999897457874517
0.9999861052467793
0.9999830198901761
0.9999807877994881
0.9999798241184391
0.9999806990238297
0.9999841789606231
0.9999912657397997
1.000003221916742
1.000092699632655
1.000085105601638
1.000073912393251
1.000057674801722
1.000034463398352
1.000001764841176
1.000085686948761
1.000074871597885
1.000059204079068
1.00003684834796
1.000005425626304
1.000076687155003
1.000062094885382
1.000041345223183
1.000012303373947
1.000066046494972
1.000047471311677
1.000021630268673
1.000104819111936
1.000104280086273
1.000103095626434
1.000101042199838
1.000097756509977
1.000104761447456
1.000104239965339
1.000103093771188
1.000101106212388
1.00009792571484
1.00009303185147
1.000104643117641
1.000104155292459
1.000103082448153
1.000101220974202
1.000098241456653
1.00009365830339
1.000086786870137
1.000104458825081
1.000104018118487
1.00010304782193
1.000101362232319
1.000098662227239
1.000094509546955
1.000088291069758
1.000079172968139
1.000118274371881
1.000131860743609
1.000118046307052
1.000132024663861
1.000117488222186
1.000132264704178
1.000116383192239
1.00013239095379
1.000114371329118
1.000132080042969
1.000110903873758
1.000130822039845
1.000105174121387
1.000127836942843
1.000096018376639
1.000121947871546
1.000081779094502
1.000111392406972
1.000060123794639
1.000093546651785
1.000027821978182
1.000064527192853
1.000118137355949
1.000131632989292
1.000117922470322
1.000131803874657
1.0001173938955
1.000132060666175
1.000116341634152
1.000132219775626
1.000114417892795
1.000131969205915
1.000111093611251
1.000130818255676
1.000105593381424
1.00012801882553
1.000096802767283
1.000122446731844
1.000083141447796
1.000112426830656
1.000062397654138
1.000095481293503
1.000031528298799
1.000067978576442
1.000117863299366
1.000131181123165
1.000117673540161
1.000131365046029
1.000117201188432
1.000131653239639
1.000116249344622
1.000131874028591
1.000114493009447
1.000131736766606
1.000111440088544
1.000130786679266
1.00010637357982
1.000128334891696
1.000098270322204
1.0001233542307
1.000085691701588
1.000114328204247
1.000066644234884
1.000099038344171
1.000038415925268
1.000074276585109
1.000117452660557
1.000130512663919
1.000117297707468
1.000130714076199
1.000116903156458
1.000131044518833
1.000116090016159
1.000131348517613
1.000114564298152
1.000131364301655
1.000111883863409
1.000130685324184
1.000107409988406
1.00012870148117
1.000100240648027
1.00012451319675
1.000089123179417
1.000116809836916
1.000072347072961
1.000103703651227
1.000047625561742
1.000082514024662
1.000145536609192
1.000158901125202
1.000171544468424
1.000146170905648
1.000160066107788
1.000173273990149
1.000147377117381
1.000162370647694
1.000176754648728
1.000149016507103
1.000165752469046
1.000182023270231
1.000150842729657
1.000170086171672
1.000189116223496
1.000152447094161
1.000175135315379
1.000198038626965
1.000153168599027
1.000180469517775
1.000208706295689
1.000151949712734
1.000185323369835
1.000220837522166
1.000147107733446
1.000188357442136
1.000233749516048
1.000135975395971
1.000187257706058
1.000245962070065
1.000114338889818
1.000178098954429
1.000254360449644
1.000145207979468
1.000158465638683
1.000171001168267
1.000145841119864
1.00015961968429
1.000172708795879
1.000147047137215
1.000161903360842
1.000176145194455
1.0001486921903
1.00016525694859
1.000181346534236
1.000150539148589
1.000169560441279
1.000188349103579
1.000152195752597
1.000174588186646
1.000197160190243
1.000153029847412
1.000179930844432
1.000207703616475
1.00015203437213
1.000184863416133
1.000219719147367
1.000147615046743
1.000188122982462
1.000232574990154
1.000137260456575
1.000187536874985
1.000244904004148
1.000117037493589
1.000179426026109
1.000253825786738
1.000144558691859
1.00015760746134
1.000169932445317
1.00014518912149
1.00015873987618
1.000171597289499
1.000146393695239
1.000160982157622
1.000174947171705
1.000148047745022
1.000164279297846
1.000180016879531
1.000149931334286
1.000168521199679
1.000186842236235
1.000151682695982
1.000173501926149
1.00019543391814
1.000152722842847
1.000178850338215
1.000205729194594
1.00015213696832
1.000183914311945
1.000217504479686
1.000148490725604
1.000187568419934
1.000230216303173
1.000139550136694
1.00018789537847
1.000242700639722
1.000121866589135
1.000181669961436
1.000252522985247
1.000143604570092
1.000156351641984
1.000144230047386
1.000157452250273
1.000169976151411
1.000145430100354
1.000159633377406
1.000173201149024
1.000147092427994
1.000162846208274
1.000178080637847
1.000149020131287
1.000166993607225
1.000184649181769
1.000150891962635
1.000171895225645
1.00019292068377
1.000152198863836
1.000177228953481
1.000202847333167
1.000152145880536
1.000182434870347
1.000214246488052
1.000149503400917
1.000186558986211
1.000226670599491
1.000142385622282
1.000188000999265
1.00023917305606
1.000127927702807
1.00018411708032
1.000249887334667
1.000183025463674
1.000192899618215
1.000200752346811
1.000185318377541
1.000195713887044
1.000204003396733
1.000189979469611
1.00020147261337
1.000210685374079
1.000197160088103
1.000210445540291
1.00022117592219
1.00020708777025
1.000223061057055
1.00023608871103
1.000220062525646
1.000239935976878
1.000256337694112
1.00023644227475
1.000261916522392
1.000283236594562
1.00025660373616
1.00029012967193
1.000318647260426
1.000280852805059
1.000326040552902
1.000365193022891
1.000309239594011
1.000371508092637
1.00042654001724
1.000341221405473
1.000423749861497
1.000511979295885
1.000182379308079
1.00019216194539
1.000199940769011
1.000184638928568
1.000194932011507
1.000203138222663
1.000189231208012
1.000200598258762
1.000209707224535
1.000196302969163
1.000209421771267
1.000220012892157
1.000206074869356
1.00022181662205
1.000234647489141
1.000218837895828
1.000238377932875
1.000254490859043
1.000234939956642
1.000259920484992
1.000280803461318
1.000254750599617
1.000287527385925
1.000315363977299
1.000278582345646
1.000322605899353
1.000360664847243
1.000306534123965
1.000366945258023
1.000420166727821
1.000338212531424
1.000416587436088
1.000502609919872
1.000181109906221
1.000190714135577
1.00019834900139
1.000183304774422
1.00019339845506
1.000201442652582
1.000187763279065
1.000198885452003
1.000207793075783
1.000194623549633
1.000207419741872
1.000217741672446
1.000204092971911
1.000219388214583
1.000231840330276
1.000216444914033
1.000235344868447
1.000250904915963
1.00023200698535
1.000256044908773
1.000276096755808
1.000251131707518
1.000282488282036
1.000309041113829
1.000274137038385
1.000315973779858
1.000351988627052
1.000301218103437
1.000358178925925
1.000407986966239
1.000332472098343
1.000378686684261
1.000483999808872
1.000168373040078
1.000179261572217
1.000188609285759
1.000196037439581
1.00018136371004
1.000191171319074
1.000198983432521
1.000185630784798
1.000196403018169
1.000205023443081
1.000192188757985
1.000204526273605
1.000214466359661
1.000201226346989
1.000215890570266
1.000227809041339
1.000212991724123
1.000230993448293
1.000245780931012
1.000227781753548
1.00025050820594
1.000269411355309
1.000245915511502
1.000275318798204
1.000267676861479
1.000300127470404
1.000306563059365
1.000339896074119
1.000293192549111
1.000345695518762
1.000391444648968
1.000322119761197
1.000394626656119
1.000430542320684
0.3333305252045128
0.9999873036058674
0.9999788440407545
0.9999704371015373
0.9999621918514255
0.9999543196065078
0.9999471844560703
0.9999413712494006
0.9999377752907078
0.9999377153279234
0.9999430633791583
0.3333306287172871
0.999987774280728
0.9999796458125546
0.9999715960990235
0.9999637447134812
0.9999563129968986
0.9999496734831005
0.9999444157314781
0.9999414321704957
0.9999420247465153
0.9999480254780254
0.3333308293166818
0.9999886863099243
0.9999811980920393
0.999973837072869
0.9999667419331916
0.9999601517804741
0.9999544533345865
0.999950242505761
0.9999484027708179
0.9999501995717889
0.9999573824392881
0.3333311150110149
0.9999899845355007
0.9999834046094627
0.9999770158058593
0.9999709811500024
0.9999655613248843
0.9999611584552612
0.9999583715791734
0.9999580647710837
0.9999614453415189
0.9999701420421138
0.9999564218475445
0.9999619651613206
0.9999723328316238
0.9999863234434542
1.00001199188205
0.9999805143829757
1.000018615286855
0.9999864559942545
1.000024670038745
0.9999974125841832
1.000035478176342
1.000049508952777
1.00007552618649
1.000154568154861
1.000242406054368
1.000080817914293
1.000157840000048
1.000242903394107
1.000090197123024
1.000163644555468
1.0002169662558
1.000101815129121
1.000170635392342
1.000255441008351
1.000385923035487
1.000494662306859
1.000617967976136
1.000387035104197
1.000491471153869
1.000611486744034
1.00046294972249
1.000483105522051
1.000589444756605
1.000347548593921
1.000518370903193
1.000555754329416
1.000652147807089
1.000706331930894
1.000730032440255
1.000697921371541
0.3333295106548617
0.9999826799078546
0.9999709461856227
0.9999589733268617
0.9999467466894951
0.9999343512520537
0.9999220294301931
0.9999102660893093
0.9998999122778792
0.9998923608782802
0.9998897845609908
0.3333296353122384
0.9999832480288326
0.9999719190237274
0.9999603908422716
0.9999486665851393
0.9999368502590289
0.9999252040146828
0.9999142313078584
0.99990479641329
0.9998982916645327
0.9998968600966027
0.3333298766991509
0.999984347969572
0.9999738007686935
0.9999631287693286
0.9999523675761975
0.9999416554583701
0.9999312891625916
0.9999218031389986
0.9999140804743516
0.9999095032458016
0.9999101445331414
0.3333302200438663
0.9999859115723692
0.9999764716280966
0.9999670057624794
0.9999575916225707
0.999948410459609
0.999939800350082
0.9999323293930659
0.9999268946974236
0.9999248511470336
0.9999281673533608
0.3333292738798118
0.9999815979728988
0.9998954598488246
0.9999037001489419
0.999919032177956
0.9999396413816311
0.9999134825016742
0.9999482775248705
0.9999227719808607
0.9999590111936202
0.9999397807494007
0.9999770122598221
0.9999623986646872
1.000000276200926
0.999964654135711
1.000114872201899
1.000198516724131
1.000019622733345
1.000118719898297
1.000204230209153
1.000037424159468
1.000213929675516
1.000248090387183
1.000058025027014
1.000101374912095
1.000224153348615
1.000342545247621
1.000565415329951
1.000686508895998
1.000343788802442
1.000649145959203
1.000679021812275
1.000345897618227
1.000479862721601
1.000763276752069
1.000674009701803
0.9998352426432913
1.000898867581604
1.000854652572742
1.000690923937682
1.00088150613596
1.000798924885967
1.000868528986675
1.000865736703447
1.000747822169405
1.000752540715222
1.000759737386674
1.000661453858827
1.000743534598616
1.000843298236178
1.000834384932924
1.000740463164092
1.000728685243505
1.000717613961311
1.000971817912994
1.000965707203235
1.000812322788078
1.000952814346268
1.000930288798005
0.3333284348932794
0.9999777677881719
0.9999625137318522
0.9999466400447098
0.9999299565942205
0.999912351825871
0.999893849764991
0.9998747025346639
0.9998555389055285
0.9998375994184181
0.9998231040086101
0.3333273108382864
0.9999726252527715
0.9999536422594701
0.9999335669243148
0.9999119760450775
0.9998884791822136
0.9998627613355106
0.9998346637544688
0.9998043307146363
0.9997724674349445
0.9997407673728811
0.3333261729255408
0.999967409544696
0.99994460188879
0.9999201482797901
0.9998933371894584
0.9998634151723312
0.9998295967372842
0.9997911040287875
0.9997472664789192
0.9996977431050785
0.9996429768621734
0.3333285825043568
0.9999784419979634
0.9999636741133567
0.9999483439730288
0.9999322888980193
0.9999154291616009
0.999897825748466
0.9998797725647448
0.9998619422636433
0.9998456135419026
0.9998330181965063
0.3333274829722199
0.9999734131304527
0.9999550049738594
0.9999355830792996
0.9999147642423947
0.9998922072283527
0.9998676588031256
0.9998410379195747
0.9998125852665379
0.9997831247345248
0.9997545160603261
0.3333263704006258
0.9999683152120492
0.9999461756744635
0.9999224934321072
0.9998966122952591
0.9998678502146634
0.9998355167352597
0.9997989624156267
0.9997576900482595
0.9997115902445741
0.9996614316630837
0.3333288681224569
0.9999797462904606
0.9999659166055582
0.9999516316610326
0.9999367792407057
0.9999213372928915
0.9999054324896347
0.999889430854178
0.9998740765005272
0.9998606992904631
0.9998515130655983
0.3333278157975619
0.9999749361377012
0.9999576361803193
0.9999394691873774
0.9999201255627862
0.9998993534461416
0.9998770099571829
0.9998531497780123
0.9998281750409512
0.9998030831716138
0.9997798570164971
0.3333267519616387
0.9999700646311604
0.9999492118975102
0.9999270091797776
0.9999029021188903
0.9998763383803667
0.9998467976592984
0.9998138568986473
0.9997773197088067
0.9997374651851737
0.9996954918109889
0.9999690948708601
0.9999562792867449
0.9999431047249304
0.9999296224441523
0.9999160399059938
0.9999028077984778
0.9998907481944957
0.9998812386926469
0.9998764658790207
0.3333282880587037
0.9999770956129348
0.9999613601083338
0.9999449536817794
0.999927662876074
0.9999093500283293
0.999890009404377
0.9998698585482745
0.9998494849161407
0.9998300768678108
0.999813775638923
0.3333272927740012
0.9999725422046515
0.9999535032910862
0.9999333721749666
0.9999117275589526
0.999888182973762
0.999862429844206
0.9998343171642706
0.9998039932833096
0.9997721535809315
0.9997404569131297
0.9998158371839104
0.9997124395088374
0.999584631817006
0.999827853077536
0.9997303873690166
0.9996096291959202
0.9998500264093136
0.9997619704546774
0.9996536199128099
0.9998797780789275
0.9998041729631829
0.9997120248345657
0.9995219380446301
0.9998221272315546
0.9999155902759345
0.9998227376890335
0.9996352545693357
0.9995392014177416
0.9998356962569874
0.999863474799523
0.9997181051169528
0.9996936957518656
0.9995668319342081
0.9995129436253299
0.9998612041930737
0.9998915487238629
0.9997555102268481
0.9997790599624811
0.9995997417522885
0.9995925807889985
0.9998956171786404
0.9999298118651854
0.9998070240218109
0.9998944373897165
0.9998119518883704
0.9996719789202595
0.9989894428650737
1.000010166818354
1.000147729115058
0.9997574572859802
0.9999515845098577
1.000166124867853
0.999516916218637
0.9996261389420138
0.9999457149201137
0.9992677930527649
0.9992560424042189
0.999499549117277
0.9998877804429231
0.9999805171881011
1.000155773375263
0.9997539225611284
0.9998731029154126
1.000173824173534
0.9995792145328952
0.9996245312049336
0.999978304436407
0.9991790928244008
0.999313050735345
0.9995746307378537
0.9999556127721767
1.000034518626401
1.000166717104801
0.9997964673064088
1.00000844361854
0.9995755999626778
0.9996923110895128
0.999665257019412
1.000046056977405
0.999346654745136
0.9994369420263701
0.9998016706962898
1.000049623870497
1.000052861303592
0.9993054677322403
1.000540259539908
1.000919560504198
1.000229462917308
1.000555574550062
1.001278265150547
1.000029354424134
1.000485498839656
1.001692227936726
0.9995900427288883
1.000177438573038
1.002232944226896
1.000356396701625
1.00053358337125
1.000893816327097
1.000238659165475
1.000557179456695
1.001246484266274
1.000060098639564
1.000501601878625
1.001642248552745
0.9996658043103386
1.000240412236111
1.002161483306508
1.00030302695512
0.999531777887544
1.000843875985902
1.000278745899976
1.000551732450682
1.001170071623721
1.000183759695198
1.000551259648129
1.001522662716909
0.9999642136483698
1.000454271055615
1.00198632324701
1.001038436738485
1.001377403954967
1.001876000672645
1.00259727784438
1.001016010051115
1.001340373543231
1.001813610065673
1.002493935628088
1.000960253101169
1.001251983831722
1.001666849199682
1.002252353437639
0.9998144330233674
0.9997122886489594
0.99978417011362
0.9998090172439004
0.9998973050535749
0.9997543480849702
0.9998038335719209
1.000168859261147
1.000016401923245
1.000032602723158
0.9999895104267746
0.9998302542780005
0.9998797242872752
0.9998535156830034
0.9996758012760992
0.9993921024733007
0.9993722289002506
0.9995340344901129
0.9993547921567495
0.9990308559983165
0.9993939578303067
0.999711401123914
0.9993618325967043
0.9994205895866498
0.9996548269492118
0.9997332101316212
0.9993926791194946
0.9994546680769194
0.9999657970334938
0.9996408309392838
0.9996783071055946
0.9997563799050252
0.9994574750998234
0.9997793317229602
0.9994928555141023
0.9991388049226504
0.9992554176278636
0.9992929945573757
0.9992959882484347
0.9992915771823457
0.9993359751189056
0.9995455778098847
0.9993272576007977
0.9993691316472779
1.000042543351982
1.000189575676925
1.000082415184933
0.9999046900254271
0.999864655271916
0.9999312980579448
0.9999058495848097
0.9997481568611829
0.9994121567043386
0.9994765322531373
0.9995687598290776
0.9998004950589315
0.9994880359009493
0.9995650956759337
0.9997019736728059
1.000028532238688
0.9997970601595957
0.9997931816065044
0.9995153925471707
0.9998458630665895
0.9996068338953982
0.9992538572932318
0.9993116385816638
0.9993919605131643
0.9993614876249179
0.9994007497831331
0.9994655061291685
0.9996911008653344
0.999395775642353
0.9995041721513099
1.00011710308555
1.000204754442657
1.000098354923751
0.9999874858496147
0.9999247425082655
1.000150891245156
0.9998702726027426
0.9998220078851106
0.9995203662643921
0.9996004178819184
0.9997357333018577
0.9997800114418939
0.9995086480020654
0.9997453997275992
0.9999416309964149
1.000048369227236
0.9998340797096745
0.9998673681194317
0.9996431474608444
0.99994052991247
0.9998801471369522
0.9994037435797515
0.9994265071655418
0.9994235840219532
0.9995069687800784
0.9995576540902903
0.9996057767573138
0.9997362800168909
0.9995471333516439
0.9996848801358204
1.000309549147527
1.000256229943769
1.000257333741547
1.000370778251279
1.000405405209911
1.000472225140531
1.000476268311367
1.000538931723423
1.000663388388288
1.000664214200895
1.00055559419289
1.000824196223774
1.000556397728833
1.000817442828351
1.00091604200704
1.00119429128656
1.001177136208712
1.000788053318849
1.000792225011697
1.000917632328533
1.000908381353277
1.000234279560781
1.000095959292958
1.000110816115289
1.00046442949748
1.000396215534847
1.000468183170653
1.000405624387342
1.000855746944119
1.000517407580565
1.000938131188849
1.000556878362844
1.000849016494573
1.000524026000853
1.000933090782766
1.00125902877214
1.001576285129405
1.001549173112964
1.000961665795733
1.001093525474365
1.000951979118364
1.001083546502474
1.000048252822567
0.9997317835197466
0.999769094615277
1.000352478284689
1.000118551926062
1.000365578218972
1.000150849678451
1.000956444487803
1.000290508766978
1.000945841866214
1.000495514661793
1.000953025743937
1.000319049607236
1.000954489978719
1.001661962850626
1.002088573095584
1.002048243702992
1.001133467375172
1.001208552636139
1.001124166423239
1.001207310046387
0.9996365480553252
0.9999924375042795
1.000035182472406
1.000904915441462
1.000216439691557
1.000921786204142
1.002189837760161
1.001204412106856
1.001209606454977
1.000447705355745
1.00026188666239
1.000277650206586
1.000269112002876
1.000319357797793
1.000476911151768
1.000477161284782
1.000647146848464
1.000522110384358
1.000645074806374
1.000555999632257
1.000812927162821
1.000552288243357
1.000793227768154
1.000883779989093
1.001165936099677
1.001117895102565
1.000779270616375
1.000764608894359
1.00090229258228
1.000876005334711
1.000120094530538
1.000255917832871
1.00015735181393
1.000469784690283
1.000411392116056
1.000474474323146
1.000433328113531
1.000844492061561
1.000527984634506
1.00092954406903
1.000556692361797
1.000824265505202
1.000542176515458
1.000912167937156
1.001531513757026
1.00119268880884
1.001455970010166
1.00094557594278
1.00107683202053
1.000917491571157
1.001046292435617
0.9997925896342775
1.000107570343101
0.9998863480521715
1.000373673115674
1.00017088457634
1.00040473430921
1.000248167571415
1.000950444924583
1.000336594929608
1.00095914524163
1.00052404181608
1.000936429268563
1.000402904633331
1.000971036980579
1.002021850741968
1.001557932946419
1.001908198186869
1.001117814589374
1.001205641933409
1.001088174100941
1.001191533540409
0.9997822327928042
1.000061671329406
1.000163669243244
1.000931367408153
1.000331064200194
1.000960931897156
1.002038420626562
1.001211724759587
1.001210643079971
1.000591624733813
1.000531474373187
1.000657133498311
1.00038670801998
1.000627984004795
1.000551403265561
1.000784572148537
1.000814673815256
1.001097654782912
1.000909547938529
1.000717706680648
1.000849316850037
1.000753164145624
1.000864524475331
1.000315929690532
1.000479733669666
1.000391720329876
1.000264324577157
1.000172052077151
1.000476450514983
1.00044130110893
1.000703078741915
1.000649776952854
1.000744275220933
1.000556388714161
1.00081531462895
1.000546885725182
1.000903869951255
1.001424349028802
1.001017171182703
1.001139381130585
1.000860900529994
1.001040690806185
1.000905275849786
1.001032661872673
1.000183829598012
1.000352359566517
1.000285238325646
1.000126110471341
0.9999225104759889