/*--------------------------------*- C++ -*----------------------------------*\
  =========                 |
  \\      /  F ield         | OpenFOAM: The Open Source CFD Toolbox
   \\    /   O peration     | Website:  https://openfoam.org
    \\  /    A nd           | Version:  7
     \\/     M anipulation  |
\*---------------------------------------------------------------------------*/
FoamFile
{
    version     2.0;
    format      ascii;
    class       volScalarField;
    location    "0";
    object      p;
}
// * * * * * * * * * * * * * * * * * * * * * * * * * * * * * * * * * * * * * //

dimensions      [0 2 -2 0 0 0 0];

internalField   nonuniform List<scalar> 
12685
(
-1.389158776925291e-06
-2.065077377644059e-06
-3.607091087107875e-06
-6.247255881653061e-06
-1.025499395022512e-05
-1.593055012023235e-05
-2.359441248585935e-05
-3.357090672407069e-05
-4.616433490789658e-05
-6.162655913544859e-05
-8.011596080905734e-05
-5.190322768073258e-08
-6.716036208381325e-07
-2.103963152677803e-06
-4.584657302462393e-06
-8.388472932578453e-06
-1.382447433252955e-05
-2.122711130182826e-05
-3.09414100913198e-05
-4.330030082605968e-05
-5.859251832678486e-05
-7.702041899720251e-05
2.570661520431305e-06
2.063304881255649e-06
8.50827595094003e-07
-1.308602012110102e-06
-4.699152852654637e-06
-9.645996519281837e-06
-1.650995446105885e-05
-2.567616478487449e-05
-3.75342118665044e-05
-5.244721733990616e-05
-7.070798289162863e-05
6.374137720928767e-06
6.034676911615986e-06
5.152703735544163e-06
3.479885677069679e-06
7.21409600419904e-07
-3.468094965015761e-06
-9.484882724554785e-06
-1.777065026517463e-05
-2.879793201024788e-05
-4.304242499548907e-05
-6.093829428614845e-05
1.120105157758126e-05
1.10832199739609e-05
1.064108591199534e-05
9.622798646958071e-06
7.725886981156085e-06
4.585775921295627e-06
-2.326853506908013e-07
-7.238797853688796e-06
-1.701038831198103e-05
-3.017328336411747e-05
-4.735901698930849e-05
1.68408738877034e-05
1.699423605658179e-05
1.7096100522065e-05
1.689851473802275e-05
1.610011173990575e-05
1.432530793805545e-05
1.110501581558142e-05
5.860204307220389e-06
-2.106700656270135e-06
-1.36049631711643e-05
-2.952266379061405e-05
2.303180647708086e-05
2.349804572211042e-05
2.423620639462571e-05
2.50150279916541e-05
2.555018120799524e-05
2.547265861705432e-05
2.429615542439811e-05
2.138347866759135e-05
1.591697000250356e-05
6.881994229158066e-06
-6.921995468861659e-06
2.946574447655617e-05
3.027349195967999e-05
3.171857656834066e-05
3.360515062713005e-05
3.568996806461079e-05
3.763944622129733e-05
3.898202704351445e-05
3.905346573310825e-05
3.69386477819494e-05
3.141893826617211e-05
2.094241585382782e-05
3.579797350174684e-05
3.69563545368084e-05
3.914455275510341e-05
4.222661299463452e-05
4.603252969422531e-05
5.030514545217311e-05
5.463765679626698e-05
5.839550602479191e-05
6.062272921779787e-05
5.993883254243929e-05
5.4442986721815e-05
4.166305988414748e-05
4.315453389358913e-05
4.607279961499552e-05
5.037077685574527e-05
5.599041883468711e-05
6.280308383337468e-05
7.053547581848985e-05
7.866955987714793e-05
8.631025220481182e-05
9.201979137003556e-05
9.362908142517534e-05
4.669790788462282e-05
4.847149296035836e-05
5.204269609552393e-05
5.748414040059037e-05
6.48913298076585e-05
7.432320497008591e-05
8.572415735800408e-05
9.880937869818685e-05
0.000112898248413088
0.0001266826435576453
0.0001379276637845154
-2.176306878630694e-06
-2.862760023280831e-06
-4.423905611911371e-06
-7.089452456048443e-06
-1.112585081566304e-05
-1.682964691029272e-05
-2.451681259427645e-05
-3.450632096045923e-05
-4.709638500561425e-05
-6.253231019860295e-05
-8.096593799185474e-05
-8.457482364279203e-07
-1.476810562854737e-06
-2.930003172094304e-06
-5.438723157772861e-06
-9.274853287511554e-06
-1.474378974373004e-05
-2.217541572763679e-05
-3.190922259242912e-05
-4.427168286292483e-05
-5.954437245556927e-05
-7.792224752280305e-05
1.764291149118155e-06
1.243942279588286e-06
7.258596367697483e-09
-2.185479115668343e-06
-5.615708803788621e-06
-1.060504177815586e-05
-1.750968638911267e-05
-2.670893688957821e-05
-3.858522840047982e-05
-5.34933354936635e-05
-7.171690148142914e-05
5.551176480954155e-06
5.196350583334486e-06
4.285205996897408e-06
2.571202531639546e-06
-2.380966044067382e-07
-4.484784200213554e-06
-1.056057581323993e-05
-1.890101423748166e-05
-2.997058208086223e-05
-4.423491525486527e-05
-6.21163166829722e-05
1.03601343711337e-05
1.022394119573965e-05
9.746255868829621e-06
8.676460241653121e-06
6.713807210849168e-06
3.496388088033625e-06
-1.406796934588985e-06
-8.498808054324884e-06
-1.834853106438273e-05
-3.15696568766002e-05
-4.877821819489391e-05
1.598431458121484e-05
1.61159061856918e-05
1.617476597892547e-05
1.591326403331526e-05
1.503065353975495e-05
1.315286241836194e-05
9.813963663731307e-06
4.440669377337593e-06
-3.655186309772747e-06
-1.526867775370193e-05
-3.126801929897821e-05
2.216658652265396e-05
2.260757955133114e-05
2.329480318173552e-05
2.399593229444267e-05
2.442552022604342e-05
2.421410238442223e-05
2.287654826004741e-05
1.977978390520471e-05
1.4114916561912e-05
4.882762741958243e-06
-9.092945319041228e-06
2.86044409902856e-05
2.938392738554668e-05
3.07706140121682e-05
3.25655993613823e-05
3.452196407807225e-05
3.630258437988267e-05
3.743360871760425e-05
3.7251417043413e-05
3.484684472155323e-05
2.901578146990973e-05
1.823342904833474e-05
3.495950788876603e-05
3.60878250061379e-05
3.821204218817414e-05
4.119046869270534e-05
4.484591063370419e-05
4.891319739379347e-05
5.2977767897051e-05
5.639942608176553e-05
5.822171169711453e-05
5.707331169216614e-05
5.107855506713764e-05
4.087309655409331e-05
4.233491390701694e-05
4.518742565533688e-05
4.937443190781826e-05
5.482620075515644e-05
6.14000805949885e-05
6.880716221669022e-05
7.651388244817964e-05
8.361297400494678e-05
8.866323161712678e-05
8.950865145070246e-05
4.598868814069256e-05
4.773646207605222e-05
5.124640329353912e-05
5.657805669324306e-05
6.380995474617796e-05
7.297966481542756e-05
8.400569810962847e-05
9.657382007590584e-05
0.0001099733653369494
0.00012287101338406
0.0001330178593721454
-3.731324773211373e-06
-4.438334203394524e-06
-6.036758348703862e-06
-8.751651135064884e-06
-1.284357818321375e-05
-1.860177799379284e-05
-2.63333233042475e-05
-3.634667187373001e-05
-4.892811371983715e-05
-6.431016275968317e-05
-8.263195733956866e-05
-2.414200006336881e-06
-3.067442286699493e-06
-4.561246197124683e-06
-7.124480735211153e-06
-1.102326682968514e-05
-1.65557408954148e-05
-2.40427759024603e-05
-3.381297954772097e-05
-4.618017264923853e-05
-6.141196147543808e-05
-7.968892878877504e-05
1.706476610623768e-07
-3.750832373618723e-07
-1.658991352608118e-06
-3.916575830581377e-06
-7.423830093253357e-06
-1.249529084138801e-05
-1.947803669018912e-05
-2.873984611524786e-05
-4.064912882054085e-05
-5.554436094115507e-05
-7.369139611451891e-05
3.923984344197548e-06
3.539108032420433e-06
2.570992422382217e-06
7.767185562571854e-07
-2.131363651324904e-06
-6.488780571037539e-06
-1.267821101975592e-05
-2.112302206677582e-05
-3.227185965722688e-05
-4.657068671436248e-05
-6.441875229672495e-05
8.696242550726331e-06
8.524086262335496e-06
7.976876680235483e-06
6.806562994911114e-06
4.715963750527785e-06
1.348611568235406e-06
-3.718129367602128e-06
-1.097487632266496e-05
-2.097284510688992e-05
-3.430192935578372e-05
-5.154799110922525e-05
1.428765818060053e-05
1.437652507520837e-05
1.4351135933929e-05
1.396470583254094e-05
1.291797303308088e-05
1.084015428506094e-05
7.271887027967517e-06
1.651520389056097e-06
-6.690343740986316e-06
-1.85207973263688e-05
-3.466925832475769e-05
2.045008147976726e-05
2.084138843033535e-05
2.142857803830375e-05
2.197753317004059e-05
2.220100036720078e-05
2.172910439130432e-05
2.007960318734107e-05
1.662815831709425e-05
1.058372645234547e-05
9.779513663883887e-07
-1.331766567390197e-05
2.689175675651719e-05
2.761538693283876e-05
2.88869735710342e-05
3.050202659065997e-05
3.220695454148945e-05
3.365839107356482e-05
3.437888573311218e-05
3.370713992634862e-05
3.074690626252776e-05
2.432384988983617e-05
1.296746924629722e-05
3.328648991642091e-05
3.435498383122994e-05
3.635238975249037e-05
3.912628777431969e-05
4.24860864378037e-05
4.615186209861881e-05
4.969513950932511e-05
5.246635844477563e-05
5.35102098111683e-05
5.147601989746583e-05
4.454084276936781e-05
3.928851293958629e-05
4.069061855027946e-05
4.341158342441039e-05
4.737795601312273e-05
5.2497945082905e-05
5.860264218772255e-05
6.537422960458215e-05
7.225099614566641e-05
7.830479025036802e-05
8.209185510057643e-05
8.148936273781688e-05
4.45538917005914e-05
4.624845005885279e-05
4.963368285905748e-05
5.474419432119521e-05
6.16261730246673e-05
7.027663276394666e-05
8.056524527387142e-05
9.212246895960757e-05
0.0001041812524692853
0.0001153617459207783
0.0001233967345976962
-6.016181212292561e-06
-6.752781986691081e-06
-8.404739752370864e-06
-1.119022759826407e-05
-1.536113465495308e-05
-2.119596232060704e-05
-2.898876528089662e-05
-3.903269443675327e-05
-5.159677693377826e-05
-6.689511747499459e-05
-8.504870491805137e-05
-4.719273952223674e-06
-5.404466466546867e-06
-6.95663254278252e-06
-9.59792535040913e-06
-1.358594360038957e-05
-1.920812854327945e-05
-2.677214521580853e-05
-3.659073517099721e-05
-4.895938537041995e-05
-6.412559096063661e-05
-8.224940108441811e-05
-2.172491359088397e-06
-2.754830860832521e-06
-4.106692826649029e-06
-6.457266850928102e-06
-1.007443271322303e-05
-1.526223941469728e-05
-2.235431865558895e-05
-3.170160533938674e-05
-4.365214310840501e-05
-5.852092257437462e-05
-7.654838147426804e-05
1.529738390941744e-06
1.101444085498596e-06
5.120853079481848e-08
-1.858378846066719e-06
-4.9077211352755e-06
-9.422487400671303e-06
-1.577192425209414e-05
-2.436147827408308e-05
-3.56167087738855e-05
-4.995517114432701e-05
-6.774315415259136e-05
6.245196149860116e-06
6.020958020126343e-06
5.373316897408358e-06
4.058303604637245e-06
1.784347482829328e-06
-1.796622385053982e-06
-7.094581608465446e-06
-1.45816187808415e-05
-2.478300242373826e-05
-3.825411799835691e-05
-5.553760499910432e-05
1.178410591689511e-05
1.181090423467315e-05
1.166347102681794e-05
1.109674972458189e-05
9.814267805715597e-06
7.450776496060134e-06
3.557292811979813e-06
-2.410086066740345e-06
-1.109281257025138e-05
-2.321706650278069e-05
-3.955643230358168e-05
1.791095494372242e-05
1.822975968171681e-05
1.867147985125795e-05
1.900009681932201e-05
1.89266417169863e-05
1.808178392560975e-05
1.598883789674236e-05
1.2037657030173e-05
5.464581124267973e-06
-4.652920263710328e-06
-1.937392585855079e-05
2.434908943102866e-05
2.499067685714296e-05
2.609394823415139e-05
2.744725131267157e-05
2.878857018777226e-05
2.976713558247251e-05
2.990238591588594e-05
2.853894603259433e-05
2.48021619732332e-05
1.756365956753266e-05
5.433567868802006e-06
3.078937842676866e-05
3.176909257028251e-05
3.357946589740271e-05
3.605374428096502e-05
3.898356460991491e-05
4.206989463141425e-05
4.486718585421643e-05
4.671636925662424e-05
4.666888407482942e-05
4.340992261556589e-05
3.519920887549133e-05
3.690412211381773e-05
3.821605118564956e-05
4.074027171769877e-05
4.437982219789004e-05
4.901298536292845e-05
5.443575424009991e-05
6.029268226541974e-05
6.5987274195728e-05
7.056933600239607e-05
7.26025523112371e-05
7.002756195268866e-05
4.236693957737141e-05
4.397838190174909e-05
4.717235432374042e-05
5.194901042448754e-05
5.830998406262492e-05
6.619703455306086e-05
7.541444282402e-05
8.552055066272884e-05
9.567829139882564e-05
0.0001044580059866146
0.0001095965948956575
-5.074790998048979e-05
-2.68123652521927e-05
3.659344726196752e-06
4.167766553947294e-05
8.808052371203961e-05
0.0001431553223408725
-2.90950143032212e-05
6.938498065357403e-07
3.782893989097582e-05
8.313150738222491e-05
0.0001369335268031451
-5.041915306239617e-06
3.039658432294605e-05
7.357403091013853e-05
0.000124844165485813
1.987881811219405e-05
6.007882308850292e-05
0.0001077699924949081
-0.0001016478181372993
-9.864684848680443e-05
-9.247930702915336e-05
-8.281008030905121e-05
-6.912888337323497e-05
-0.0001024067943634612
-9.946131104768497e-05
-9.340958435361861e-05
-8.392646256762278e-05
-7.051722521261149e-05
-5.251572948425241e-05
-0.000103891919161951
-0.0001010538692418401
-9.522624990699057e-05
-8.610290157594153e-05
-7.321873034828683e-05
-5.594874455168339e-05
-3.351875949244592e-05
-0.0001060402589702448
-0.0001033549350164466
-9.784559375777867e-05
-8.923239756402134e-05
-7.709121450252455e-05
-6.085377112228356e-05
-3.981837807303644e-05
-1.318327748742002e-05
-0.0001257431239301289
-0.000151873908074001
-0.0001230351011702971
-0.0001496815140382518
-0.0001174168526975328
-0.0001450739220500904
-0.0001084719034168766
-0.0001375846895404144
-9.5546545350098e-05
-0.0001264614242658225
-7.771921814284795e-05
-0.0001106014202416502
-5.376953656567709e-05
-8.846647855833905e-05
-2.216206289932106e-05
-5.79834129532979e-05
1.89258185884055e-05
-1.644781540457887e-05
7.147638892661068e-05
3.953272840770877e-05
0.0001372941683367667
0.000113996490102648
-0.0001263733854402896
-0.0001523383543301156
-0.0001237211273273052
-0.000150197668296669
-0.000118220597920502
-0.0001457006367857988
-0.0001094683471572256
-0.0001383961516624886
-9.683182581603915e-05
-0.0001275575668396484
-7.942070115856609e-05
-0.0001121220061222573
-5.605833949395564e-05
-9.061078112168388e-05
-2.526815775393519e-05
-6.10383582306307e-05
1.469705736915275e-05
-2.082996029929394e-05
6.573227237853306e-05
3.320781982925718e-05
0.000129577880042014
0.0001047779351096193
-0.0001276039234700443
-0.0001532420233763555
-0.0001250593348363846
-0.0001512008502083252
-0.0001197859190017257
-0.0001469163964902138
-0.0001114049660909931
-0.0001399665883957574
-9.932401088671351e-05
-0.000129673368632913
-8.271163470065208e-05
-0.0001150486256049138
-6.047321051559733e-05
-9.472434619998212e-05
-3.124134919893543e-05
-6.68751458351858e-05
6.593151877528392e-06
-2.915452581917657e-05
5.476475327066326e-05
2.130649799556688e-05
0.0001148599928127184
8.773673514106844e-05
-0.0001293775128662495
-0.0001545370540755405
-0.0001269852783458118
-0.0001526359348752864
-0.0001220328299647744
-0.0001486502155773673
-0.0001141755448477196
-0.000142197620266422
-0.0001028759764362697
-0.0001326663843229815
-8.738311470342242e-05
-0.0001191696814722662
-6.67133269798157e-05
-0.000100487783765202
-3.96450797213463e-05
-7.500575760896862e-05
-4.749381212438853e-06
-4.066530145530516e-05
3.950686900545172e-05
5.030398176237963e-06
9.452600683413556e-05
6.488414620390713e-05
-0.0001797089737761686
-0.0002083518593129236
-0.0002366667684215563
-0.0001782734641810746
-0.000207901665827244
-0.0002373835971957802
-0.0001751834638675362
-0.0002068175559294784
-0.0002387028297496518
-0.0001699727136439444
-0.0002047001416941626
-0.0002403661791054208
-0.0001618680232038825
-0.0002008650315134363
-0.0002419057011565577
-0.000149692317053967
-0.000194224502857104
-0.0002425261481945065
-0.0001317222474722252
-0.0001831013154721884
-0.0002409078928939194
-0.0001054920508719457
-0.0001649477444205361
-0.0002348852304330683
-6.75392627837081e-05
-0.0001359371940572871
-0.000220930462104884
-1.30952859006702e-05
-9.040493178968362e-05
-0.0001933446848918155
6.429685223860134e-05
-2.019080126183301e-05
-0.0001430220522780924
-0.0001799711964535852
-0.000208382093644591
-0.0002364464381669083
-0.0001785781640516253
-0.0002079596904243324
-0.0002371714363244432
-0.0001755805133092028
-0.0002069378100950486
-0.0002385117529854341
-0.000170528163253213
-0.0002049319176219457
-0.0002402200266158346
-0.0001626759333742768
-0.0002012841828618403
-0.000241848738348108
-0.0001508919061442055
-0.0001949515041652679
-0.0002426388265593419
-0.000133523744850869
-0.0001843301496157045
-0.0002413338629539942
-0.0001082168362202023
-0.0001669928087932108
-0.0002358784839054718
-7.16853726126243e-05
-0.0001393091241783106
-0.0002229390169013827
-1.945873257972837e-05
-9.592585099642224e-05
-0.0001971610043487294
5.432634073147416e-05
-2.911421455061473e-05
-0.0001500381770283192
-0.0001804772337666684
-0.0002084328842471501
-0.0002360063199125605
-0.0001791655790829756
-0.0002080632412102773
-0.0002367460193379332
-0.0001763446719555066
-0.0002071594158860235
-0.000238124632392605
-0.0001715949731021055
-0.0002053648215450883
-0.0002399152482958339
-0.0001642239987273928
-0.0002020714544674452
-0.000241708507901221
-0.000153184327880529
-0.0001963195483395052
-0.0002428127931752301
-0.0001369552936849744
-0.0001866418204119726
-0.000242089133138708
-0.0001133849098789406
-0.0001708326456093221
-0.0002376865549592112
-7.949805637873778e-05
-0.0001456197843124436
-0.0002266298243853466
-3.130738644906541e-05
-0.0001062212963446104
-0.0002042054516574928
3.62364514391414e-05
-4.578994600355956e-05
-0.0001630863777134261
-0.0001811924816593667
-0.0002084864897506006
-0.0001799944878233923
-0.0002081894020972578
-0.0002361063031401574
-0.0001774200370634065
-0.0002074477336240385
-0.0002375334594730971
-0.000173091244809493
-0.0002059427923874764
-0.0002394303357176968
-0.000166387139836892
-0.0002031338078436469
-0.0002414386332164159
-0.0001563741204219829
-0.0001981727035111556
-0.0002429565646842283
-0.0001417069075237566
-0.0001897733930051472
-0.0002430006729052743
-0.0001204982800837759
-0.0001760207793395859
-0.0002399881461969624
-9.016272965641754e-05
-0.0001541021955466662
-0.0002314054746891246
-4.725416049440998e-05
-0.0001199396993763143
-0.0002133291071287915
1.266228246536482e-05
-6.76537692249162e-05
-0.0001797591454731006
-0.0002633321022355506
-0.000286933048725801
-0.0003060856757309453
-0.0002653148321489982
-0.0002901668672315552
-0.0003104244920023317
-0.0002692650751351617
-0.0002967365179909039
-0.0003193208305720108
-0.0002751328238259725
-0.0003068428817191895
-0.0003332287329704322
-0.000282787596702977
-0.0003207756340906778
-0.0003528718503226447
-0.0002919312796209085
-0.0003388866254475343
-0.0003792970384540956
-0.0003019398961177052
-0.0003615256906306635
-0.0004139488017201609
-0.0003115803232080544
-0.0003888928074714697
-0.0004587653513070437
-0.0003185074803864449
-0.0004206982174946579
-0.0005163025538988794
-0.0003183946803471683
-0.0004553381409993385
-0.0005899524696563088
-0.0003035740545281768
-0.0004876251728846332
-0.0006847213731504949
-0.0002628580363342911
-0.0002862205094092366
-0.000305169407262685
-0.0002648258632934303
-0.0002894153024964425
-0.0003094470571832121
-0.0002687480544456375
-0.0002959049401637632
-0.0003182152915663913
-0.0002745790737136554
-0.0003058865599758393
-0.0003319158726570451
-0.0002821979284300616
-0.0003196448296955455
-0.000351252079115038
-0.000291325532030807
-0.0003375264900976272
-0.0003772396162342405
-0.0003013749430954886
-0.0003598782576390955
-0.0004112768791257413
-0.0003111839386178494
-0.0003869008537235457
-0.0004552352876416232
-0.0003185442353454828
-0.0004183010569253649
-0.0005115806964181009
-0.0003194145487614085
-0.000452403960570942
-0.0005836270908183979
-0.0003068619314011306
-0.0004836614708558714
-0.0006765182902260844
-0.0002619214365433749
-0.0002848177541154441
-0.0003033686866540139
-0.0002638593414837319
-0.000287936062925943
-0.0003075271704800349
-0.000267724891887797
-0.000294268879001158
-0.0003160459878298422
-0.0002734807551504305
-0.0003040059794344846
-0.0003293433479113608
-0.0002810234514473985
-0.0003174221814490519
-0.0003480835329023574
-0.0002901092572596136
-0.0003348543080586464
-0.000373222728855946
-0.0003002206496465452
-0.0003566438950049561
-0.0004060709559084676
-0.0003103295184496106
-0.0003829966858978245
-0.0004483685169271552
-0.0003184871381042644
-0.0004136117761223592
-0.0005023912337049792
-0.0003211904695732641
-0.000446492481040237
-0.0005713067487284334
-0.0003130391881850352
-0.0004728352326663699
-0.0006618622600265476
-0.0002353483168044022
-0.0002605452540145699
-0.0002827683490623509
-0.0003007451840170875
-0.0002624381204835264
-0.000285775759005004
-0.0003047325304142732
-0.0002662177012012446
-0.000291881173695136
-0.0003128935263090999
-0.0002718572654016382
-0.0003012636315357557
-0.000325613421927989
-0.0002792761857176485
-0.0003141835486320587
-0.0003435021466273147
-0.0002882774148263733
-0.0003309636590443846
-0.0003674333645997055
-0.0002984366240759951
-0.000351942270214245
-0.0003985944555930826
-0.0003089111653474711
-0.0003773639140046553
-0.0003181278539957484
-0.000438532770820419
-0.0004071286878343398
-0.0004891243558449324
-0.0003233630875664679
-0.000440250422303747
-0.0005520516707335238
-0.0003206730264565919
-0.0004741568089617199
-0.0006251036427258481
5.057196617784465e-05
5.253849046584694e-05
5.66097062886622e-05
6.30064730080419e-05
7.201619432311261e-05
8.394341303422308e-05
9.904052783100124e-05
0.0001173937786350247
0.0001387376955748008
0.0001621676198450129
0.0001857313344858605
4.998134141878933e-05
5.193071656126909e-05
5.595427614356373e-05
6.225558907081378e-05
7.109951830078725e-05
8.276113373501087e-05
9.745495214549634e-05
0.0001152206305906588
0.0001357400590876448
0.0001580568550277122
0.0001801726895946225
4.876840092003971e-05
5.06800270930194e-05
5.460262297720424e-05
6.070653406071628e-05
6.921326396203573e-05
8.034128968508561e-05
9.423232144534625e-05
0.000110835381154214
0.0001297256922913559
0.0001498313809040997
0.0001690405703266821
4.68785132241762e-05
4.872603127034109e-05
5.248521647340598e-05
5.827997002266378e-05
6.627123017876399e-05
7.659911631819064e-05
8.930581214025301e-05
0.0001042182473082013
0.0001207704728726426
0.0001377434231723686
0.000152903660845082
0.0002059689643205607
0.0001985459196729596
0.000183701103573666
0.0001625780405868022
0.0001611264356817737
0.0002171944306043947
0.0002113974043228203
0.000207204267517744
0.0001976983714881939
0.0001878021729692795
0.0001732156400011615
0.0001415978763433352
0.0001735402198341101
8.565941029754712e-05
-5.552572052022646e-05
0.0001569294229690485
7.191782625660342e-05
-6.796837206080373e-05
0.0001286216827246019
4.51754284197906e-05
-9.163744293943195e-05
9.508221837470761e-05
1.158627151367341e-05
-0.0001213914885104548
-0.0002618409168050555
-0.0004499353260937159
-0.0007537732702599095
-0.0002710162690507438
-0.0004508831073127226
-0.0007479743239768437
-0.0002926546012399432
-0.0004531619217549404
-0.0007233090163444374
-0.0003077732175301498
-0.0005097001979170815
-0.000704843326054814
-0.0009410481510099698
-0.001027057911023855
-0.001027250342978133
-0.0009989052195511587
5.29923727679324e-05
5.502301168331205e-05
5.935786722519465e-05
6.638488536531812e-05
7.660756910972661e-05
9.061748539004211e-05
0.0001090504388315049
0.0001324962015547372
0.0001613216193370468
0.0001953496260457443
0.000233341593893394
5.255982412101362e-05
5.458797082475874e-05
5.890050489162621e-05
6.586420832185826e-05
7.59551357581543e-05
8.972786593238812e-05
0.0001077683239603872
0.0001306018201842838
0.0001585210136482273
0.0001912859997982594
0.0002276469520378078
5.164396615249969e-05
5.366101945717829e-05
5.791815486149751e-05
6.474114450003173e-05
7.455266555529375e-05
8.783529326011159e-05
0.0001050770235407202
0.0001266720454828316
0.0001527440652085681
0.0001828473964716638
0.000215488489072971
5.015528407828534e-05
5.214219834522144e-05
5.629279051779706e-05
6.287476201946308e-05
7.223506860646441e-05
8.475491431027912e-05
0.0001007858488328736
0.0001205406329858717
0.000143908162906721
0.0001701502896083508
0.00019742765619229
5.211223935082544e-05
5.41208652121862e-05
0.0002724222148986524
0.0002647153407753459
0.0002474226731521165
0.0002221430697048811
0.0003077414248154153
0.0003342736676873931
0.0002966102659995956
0.000313493867726667
0.0002720310861572484
0.0002784131989459886
0.0002377733483167828
0.0002354829048821596
0.000327513369328225
0.0002399307145869993
0.0001835636320518485
0.0002948026263291264
0.0002230377562669684
0.000173263990054861
0.000246605991003061
0.0001812047791570361
0.0001138992189533632
0.0002053817435872657
0.0001326093915134542
-1.877868330139145e-05
-4.271319575310515e-05
-0.0004118112254305468
-0.0008204392762806602
-5.888960238116168e-05
-0.0004241821474297389
-0.0008107018525495547
-0.000120085168927814
-0.0004411656176883202
-0.0008230635288818768
-0.0008208847627476142
-0.0009822076877378848
-0.001144223070907851
-0.001170313639239901
-0.00081496974602882
-0.0009982405357227833
-0.0009976699118139029
-0.001058083492911682
-0.001056777512641465
-0.0008000550843948262
-0.0008017047171362215
-0.0009967527115968306
-0.0007907120580086558
-0.0009767460306137499
-0.001046535975545207
-0.001035973876808865
-0.0007943111230619594
-0.0007985260199290374
-0.001073336902175979
-0.001293115531214008
-0.001287254060103742
-0.001140376764712958
-0.001276290100918146
-0.001257751157020951
5.388281988180777e-05
5.582385139696507e-05
6.012956071009295e-05
6.736058550091008e-05
7.824038845685773e-05
9.366122523148999e-05
0.0001146838503777082
0.0001424996377176585
0.0001783010916352668
0.0002229533747408867
0.0002762772342448864
5.325545098269232e-05
5.49351442748093e-05
5.88764227948137e-05
6.580458915797679e-05
7.664455900795354e-05
9.256953633685815e-05
0.0001150612063378613
0.0001459581787993547
0.0001874347173363479
0.0002417313997998378
0.0003100536443215456
5.123842161150132e-05
5.248526485460727e-05
5.571732131251605e-05
6.179989972573544e-05
7.181386731535643e-05
8.715008832598516e-05
0.0001096394379682478
0.0001417211675622363
0.0001866412298041319
0.0002486179429578657
0.0003329614081439217
5.364626594444282e-05
5.560617856497523e-05
5.99283937098118e-05
6.714953436761715e-05
7.796249566141078e-05
9.321726333453492e-05
0.0001139148788950987
0.0001411663858993635
0.0001760756868534751
0.0002194815705476585
0.0002714852292029978
5.325150890660337e-05
5.497883384509205e-05
5.899058703269496e-05
6.598696529585539e-05
7.686225427648782e-05
9.274620896015003e-05
0.0001150551310423098
0.0001455331074340426
0.0001862489960126072
0.0002394831113597164
0.0003074395396002051
5.149591700516704e-05
5.282614845895448e-05
5.619743944364481e-05
6.245139246160216e-05
7.264255384689067e-05
8.812341256311877e-05
0.0001106602693257203
0.0001425808486349949
0.000186951226599726
0.0002477550535369981
0.0003301203771970784
5.309972656436334e-05
5.50877411459444e-05
5.942524099911748e-05
6.660182077883529e-05
7.725008771416282e-05
9.213638768453565e-05
0.0001121417469174018
0.0001382050762144769
0.0001711906232650617
0.000211623248502097
0.00025922311978483
5.314397689650622e-05
5.495235998854232e-05
5.907824605046717e-05
6.617191920393076e-05
7.706598276960554e-05
9.280251316924868e-05
0.0001146640252339048
0.0001441858365474415
0.0001831143155285172
0.0002332552094820855
0.0002962187260560487
5.188224325866601e-05
5.335954697020729e-05
5.697130649792884e-05
6.351081541051798e-05
7.397755123125307e-05
8.964437251416661e-05
0.0001121457434182021
0.0001435772766612429
0.0001865805225331089
0.0002443269518628022
0.0003205157807491461
5.844213689290763e-05
6.549799306223847e-05
7.583380095468747e-05
9.009582568152579e-05
0.0001089948341482947
0.0001332269146415681
0.0001633121222863437
0.0001992871742448836
0.0002401533506464787
5.275400620280385e-05
5.465214156828722e-05
5.888956960494447e-05
6.60431496241672e-05
7.685352175423611e-05
9.223349278130553e-05
0.0001132728022214207
0.0001412126512609374
0.0001773467290334881
0.0002227601848970288
0.0002777290026422743
5.216561167619164e-05
5.38192455325793e-05
5.770683221662395e-05
6.454805303268081e-05
7.525573292501844e-05
9.097982237947075e-05
0.00011316213545211
0.0001435851946922381
0.0001843808772858385
0.0002378822307480671
0.0003058978693705428
0.0003358137021207735
0.0003882535347146908
0.0004477671457156712
0.0003308177321985556
0.0003919785799418331
0.0004415040414729491
0.0003121605543647974
0.0003733234000300499
0.0004235751298967045
0.000282978511548364
0.0003404616293531224
0.0003862261280773201
0.00060450627720479
0.0003972497050241072
0.0004840556200371807
0.0005071375329046676
0.000653929549612488
0.0008000155053198568
0.0003936127592103966
0.0004535680050157135
0.0004964019106444494
0.000617883089545526
0.0005927330487003026
0.0007343663879330972
0.0003646003055079374
0.0004061168101337889
0.0004623104699825277
0.0005587017517022544
0.0005673100477648722
0.0006897221091196495
0.000320899295384423
0.0003421457288416406
0.0004051657201140062
0.0004884605216960202
0.000503497779824365
0.0006456367895857499
0.0005500115667401208
0.0003751174921192456
0.0002881633645349556
0.0006592516691647294
0.0007033562629753701
0.0004577243401455891
0.0009101784288240329
0.0009767216842331691
0.0009724510290326909
0.001051171763150682
0.001332457094198735
0.001740488931551352
0.0004867932129509366
0.0003985073197218321
0.0002776693137702174
0.0006296011764613465
0.0006634575734100708
0.0004177095348823999
0.0008542829650919692
0.0009417634592414638
0.0009032520533319743
0.001040111241465487
0.001286771914226238
0.001622869244789771
0.0004244600390094068
0.0002820951589835448
0.0001889854175119464
0.0006374700842865284
0.0004906598352575867
0.0003002825277866889
0.000727039790693426
0.0008826982742978032
0.0006414516114887544
0.00097891812743418
0.001169743061076252
0.001119647621443838
0.0003535341808149988
0.0002559111468309619
0.0001863498267480429
-0.0003280037112250139
-0.001099461243724986
0.0003871005741173083
-8.640263719404865e-05
-0.001496796660354158
0.0009115115550964416
0.000397376589046979
-0.001754674016162663
0.001740351076258713
0.001362016061182818
-0.001817270001009429
3.603130600003785e-05
-0.0003376097650019059
-0.001085474354993727
0.0003463795674028688
-0.0001198585133091104
-0.001479066963598383
0.0008381373261535741
0.0003191850249954854
-0.001745265902059558
0.0016098979709765
0.00118929754659606
-0.001864894693005864
-5.30559951034824e-05
-0.0002803937841471989
-0.001046318834174214
0.000109166594871564
-0.000267381318964857
-0.001431506603422046
0.0005020833824014051
-7.579028254621881e-06
-0.001708104883631718
0.001024675634122141
0.0004890706046027644
-0.001923153547974787
-0.001368108143335046
-0.00171965795752414
-0.002148116129135221
-0.002541315024796236
-0.001348658772954171
-0.001691298470820262