/*--------------------------------*- C++ -*----------------------------------*\
  =========                 |
  \\      /  F ield         | OpenFOAM: The Open Source CFD Toolbox
   \\    /   O peration     | Website:  https://openfoam.org
    \\  /    A nd           | Version:  7
     \\/     M anipulation  |
\*---------------------------------------------------------------------------*/
FoamFile
{
    version     2.0;
    format      ascii;
    class       volScalarField;
    location    "0";
    object      Phi;
}
// * * * * * * * * * * * * * * * * * * * * * * * * * * * * * * * * * * * * * //

dimensions      [0 2 -1 0 0 0 0];

internalField   nonuniform List<scalar> 
12685
(
57.33956916469269
56.00622733221327
54.67287680664332
53.33951720296805
52.00614795137703
50.67276830797554
49.33937737143068
48.00597410742232
46.67255738298576
45.33912601280117
44.00567881908987
57.33958390038783
56.00624229948165
54.67289223229704
53.33953330372822
52.00616492743325
50.67278633495554
49.33939659041579
48.0059946128363
46.6725792084779
45.33914911566079
44.00570306427271
57.33961325861406
56.00627212921114
54.67292299607659
53.33956544501565
52.00619885815714
50.67282241974329
49.33943512667323
48.0060358062212
46.67262314387928
45.33919572463145
44.00575209098881
57.33965700505105
56.00631660340982
54.67296891383278
53.33961349634133
52.00624968980075
50.67287661235368
49.33949316516048
48.00609804233478
46.67268975082299
45.33926664477665
44.0058269795183
57.33971476849835
56.00637537435023
54.67302968669136
53.33967723679915
52.00631731391214
50.67294895791697
49.33957095299849
48.00618182560893
46.6727798514228
45.33936307740974
44.00592936657912
57.33978601799861
56.0064479403149
54.67310487417576
53.33975632461852
52.00640153289559
50.67303945866342
49.33966875955306
48.0062877717567
46.67289449712249
45.33948660462385
44.00606145681714
57.33987003380867
56.0065336144908
54.67319385908569
53.33985025640963
52.0065020126092
50.67314801988746
49.33978681741301
48.00641654784275
46.6730349153077
45.33963915419559
44.00622602266695
57.33996587378844
56.006631488419
54.67329580516643
53.33995831647369
52.00661822129922
50.67327437756535
49.33992523963872
48.00656878317371
46.67320242245739
45.33982293001277
44.00642637512068
57.34007233751758
56.00674039216416
54.67340960938432
53.34007951731617
52.00674935481292
50.67341800560422
49.34008390824686
48.00674494168293
46.67339828891498
45.34004028665381
44.0066662780219
57.34018793134654
56.00685885434103
54.67353385172789
53.34021253375222
52.00689424936512
50.6735780019018
49.34026232951359
48.00694514571553
46.67362353696957
45.34029351909764
44.00694976484638
57.34031083859018
56.00698506627976
54.67366674688068
53.34035563481198
52.00705128537738
50.67375295493648
49.3404594540684
48.0071689423638
46.67387865222932
45.34058453104946
44.00728079985802
57.33956247472103
56.00622060187685
54.67286999760197
53.33951028097532
52.00614088842953
50.67276108456129
49.33936997886712
48.00596655023707
46.67254968124475
45.33911820423084
44.0056709607784
57.33957708339793
56.00623543827004
54.67288528466957
53.33952623160324
52.00615769903258
50.67277892713354
49.3393889911302
48.00598682372561
46.67257124745731
45.33914101938349
44.00569489022891
57.33960618719709
56.0062650056645
54.67291577028767
53.33955807098929
52.00619129627495
50.6728146392417
49.33942710837312
48.00602754549968
46.67261465381613
45.33918703918246
44.00574326793883
57.33964955114944
56.00630908503472
54.67296126846878
53.33960566551215
52.00624162139083
50.67286826327566
49.33948450444959
48.00608905471065
46.6726804406935
45.33925704056071
44.00581713802734
57.33970680341481
56.0063673274457
54.67302147793836
53.33966878993348
52.00630855875437
50.67293983321691
49.33956140995925
48.00617183221471
46.67276939762832
45.33935218113499
44.00591808027081
57.3397774128098
56.00643923021928
54.67309595570566
53.33974709742566
52.00639190192103
50.67302933705702
49.33965807261023
48.00627646212946
46.67288253151449
45.33947398206132
44.00604821836471
57.33986066032148
56.00652410640068
54.67318408256773
53.33984007950619
52.006491306963
50.67313666348951
49.339774698785
48.00640357211329
46.67302101264666
45.33962429099088
44.00621021559465
57.33995560617233
56.00662104893338
54.67328502159697
53.33994701629025
52.00660623247454
50.67326153068036
49.33991137188728
48.0065537450131
46.67318608777006
45.3398052106824
44.00640724077266
57.34006105473022
56.00672889169758
54.67339767143469
53.3400669182362
52.00673586627414
50.67340339525617
49.34006794270665
48.00672739297377
46.67337894580304
45.34001897263231
44.00664287780478
57.34017552043629
56.0068461705221
54.67352061729808
53.34019846179201
52.00687904015447
50.67356134086309
49.34024388771522
48.00692458447948
46.67360051879984
45.3402677279346
44.00692093936686
57.34029719890169
56.00697108839788
54.67365208400364
53.34033992313262
52.00703413623868
50.67373394816682
49.3404381336205
48.00714481616779
46.67385119933878
45.34055322075127
44.00724512927305
57.33954927432988
56.00620732272181
54.67285656491742
53.3394966280765
52.00612696094723
50.67274684486143
49.33935541063462
48.00595166312905
46.67253451542352
45.3391028344758
44.00565549975575
57.33956363352681
56.00622190212593
54.67287157998783
53.339512284245
52.00614344730434
50.6727643263672
49.33937401852826
48.00597148339791
46.67255557547382
45.33912508854116
44.0056788140868
57.33959223765063
56.0062509544533
54.67290151974396
53.33954353159876
52.0061763911379
50.67279930895135
49.33941131636977
48.00601128387824
46.67259794944763
45.33916995985646
44.00572592804081
57.33963485056106
56.00629425876647
54.67294619473824
53.33959023056885
52.00622572411379
50.67285182043422
49.33946745677956
48.00607137387616
46.67266213707502
45.33923817161854
44.00579781672501
57.33969109931386
56.00635146393449
54.67300529920799
53.339652147719
52.00629131695708
50.67292187353382
49.33954263881704
48.00615218923657
46.67274886573077
45.33933079812481
44.00589595145848
57.33976045247926
56.0064220656223
54.67307838552441
53.33972892670829
52.00637294644864
50.67300942916053
49.33963706894624
48.00625425389803
46.67285905749902
45.33944924463594
44.00602230217519
57.3398421927149
56.00650537687462
54.67316483091997
53.33982004957721
52.00647025021606
50.67311434456242
49.33975090381517
48.0063781207048
46.6729937743401
45.33959520692447
44.00617932557857
57.33993538514765
56.00660049370391
54.67326379757174
53.33992478884212
52.00658266884022
50.67323630437559
49.33988417081395
48.00652428467584
46.67315413122278
45.33977059686659
44.00636992257822
57.34003884382444
56.006706257817
54.67337418787379
53.34004215163826
52.00670937546195
50.67337473302085
49.3400366621633
48.0066930606209
46.67334116401866
45.339977414865
44.00659733987801
57.34015109933926
56.00682121953606
54.67349459777969
53.34017081835114
52.00684919437889
50.67352868812267
49.34020779906639
48.0068844166379
46.67355563639214
45.34021754368164
44.00686497915765
57.34027037167321
56.00694360503434
54.67362327243024
53.34030907988641
52.00700051225474
50.67369673709288
49.34039646490121
48.00709775662405
46.6737977691476
45.34049243269867
44.00717606370005
57.33952991562784
56.00618785062282
54.67283687189512
53.33947661846151
52.00610655712033
50.6727259936947
49.33933409014271
48.00592988918659
46.67251234826832
45.33908038455918
44.00563293233239
57.33954391170547
56.0062020561364
54.67285149155681
53.33949184704015
52.00612257325844
50.67274295235746
49.33935211340795
48.00594905526582
46.6725326789191
45.33910183142111
44.0056553631924
57.33957178867276
56.00623035923853
54.67288063795528
53.33952223492232
52.00615456983033
50.6727768789646
49.33938822712664
48.00598752665235
46.67257356613407
45.33914505169711
44.00570066359737
57.33961330892958
56.00627253648943
54.67292411696371
53.33956763436596
52.00620246525128
50.67282778108647
49.33944255436342
48.00604557110006
46.67263545309174
45.33921069389625
44.00576971287586
57.33966809828617
56.00632823397869
54.67298161682182
53.33962780073598
52.0062661114183
50.6728956419785
49.33951525039782
48.00612356195821
46.67271898091258
45.33929971685599
44.00586383230844
57.33973562542299
56.00639694550406
54.67305268385867
53.33970236483139
52.00634526211722
50.67298038520485
49.3396064646813
48.00622193994136
46.67282495447803
45.33941336591258
44.00598478007848
57.33981517598881
56.00647798476636
54.67313669098724
53.33979079613302
52.00643952994501
50.67308182495096
49.33971628551088
48.00634115498671
46.672954286835
45.33955312841697
44.00613473006188
57.33990582287205
56.00657045298571
54.67323280008249
53.3398923575545
52.00654833146454
50.67319960042074
49.33984466392123
48.0064815821718
46.67310791306323
45.33972065612099
44.00631621904747
57.34000639485463
56.00667320404223
54.67333992008412
53.34000605301961
52.00667082098656
50.67333309316807
49.33999131324604
48.00664340467652
46.67328666196691
45.33991763723424
44.00653203945494
57.34011544665551
56.00678481011111
54.67345666365889
53.34013057033788
52.00680581464408
50.67348132746278
49.340155581711
48.0068264567627
46.67349107209795
45.34014559599225
44.00678504512259
57.3402312342361
56.00690353175628
54.67358130650496
53.34026422345746
52.00695170844822
50.67364285617701
49.3403362978866
48.00703002161753
46.67372113863205
45.34040559369097
44.00707782715664
42.6726161745953
42.67279184025889
42.67300810727031
42.67327049969939
42.67358533419791
42.6739594484422
42.67277517292498
42.67298761041779
42.6732449957405
42.67355331808793
42.67391900654335
42.67294770278532
42.67319546597476
42.6734913183349
42.67384093755723
42.6731246755549
42.67340310764414
42.67373041745789
42.67221470589856
42.67223985138715
42.67229082058747
42.6723689901979
42.67247647393333
42.67220687530158
42.67223167933668
42.67228194392256
42.67235900064194
42.67246489119315
42.67260241401649
42.67219147545848
42.67221561492696
42.67226450894246
42.67233940307876
42.67244220203656
42.67257550632716
42.67274264722619
42.67216901315164
42.67219219968706
42.67223913030468
42.67231093141434
42.67240931857473
42.67253662037099
42.67269579600999
42.67289042984227
41.35540127157061
40.05523878008953
41.35542695069778
40.05526452926622
41.35547912725906
40.05531697276608
41.3555594741383
40.05539805551237
41.35567059096189
40.05551083368736
41.35581611054827
40.05565964690713
41.35600083475955
40.05585035496575
41.35623088772051
40.05609063962204
41.3565138602603
40.0563903614378
41.35685889327723
40.05676193711852
41.35727660129538
40.0572206492481
41.35539356493489
40.05523130668018
41.35541888176153
40.05525667980815
41.35547030775901
40.05530834125328
41.35554946141504
40.05538817268064
41.35565885435197
40.0554991265907
41.3558019894331
40.05564538667509
41.3559834844331
40.05583258656551
41.35620920845582
40.05606808530583
41.35648640434432
40.05636128667992
41.35682374510716
40.05672396439905
41.35723122893852
40.05717050286081
41.35537841523715
40.05521662131054
41.35540302760037
40.05524126391005
41.35545299516217
40.05529140723273
41.35552983282957
40.05536881263268
41.35563588504505
40.05547623593239
41.35577440861814
40.05561756612986
41.35594967427783
40.05579801146935
41.35616707295144
40.05602432774741
41.35643319937471
40.05630507185404
41.35675586251772
40.05665083917332
41.35714393470312
40.05707439754744
41.35535633289706
40.05519522965676
41.35537993670405
40.05521882794012
41.35542781852783
40.05526680366314
41.35550135003089
40.05534075211443
41.35560264534485
40.05544315877847
41.35573462412147
40.05557750995526
41.3559010848064
40.0557484369545
41.35610677303755
40.05596188493102
41.35635741753813
40.0562252851249
41.35665968533289
40.05654768601893
41.35702097634231
40.05693975780919
38.75505843369532
37.45486038496128
36.1546452908203
38.755083687694
37.45488448599414
36.15466751680249
38.75513524229282
37.45493379543056
36.1547130815214
38.75521526453541
37.45501061933574
36.15478431436831
38.75532719536877
37.4551186550259
36.15488498300213
38.75547599433097
37.45526330576885
36.15502066285386
38.75566849268601
37.4554521516796
36.15519930612452
38.75591387659592
37.45569562687966
36.15543209234046
38.75622432243971
37.45600797145701
36.15573468605731
38.7566157981069
37.45640854427795
36.15612908143579
38.757109021993
37.45692359550726
36.15664621951593
38.7550513192987
37.45485376605961
36.15463930874943
38.75507619286439
37.45487749402617
36.15466118271263
38.75512695329881
37.45492602186471
36.15470600746518
38.75520569679745
37.45500157963731
36.15477603488835
38.75531574671367
37.45510773699559
36.15487490099591
38.75546188259536
37.45524969851682
36.15500797312928
38.75565066861327
37.45543474307352
36.15518288159231
38.75589089879652
37.45567285070845
36.15541030853367
38.75619417445714
37.45597757458362
36.15570514417668
38.75657561554716
37.45636722490244
36.15608816654674
38.75705466885827
37.45686642294586
36.15658840377128
38.75503734458804
37.45484076895972
36.15462756540503
38.75506147974716
37.45486377339996
36.15464875715828
38.75511070000684
37.45491078677401
36.15469214927192
38.75518696698276
37.45498389495378
36.15475984676596
38.75529338129627
37.45508642616105
36.15485523710649
38.75543438296296
37.4552232109146
36.15498329674689
38.75561603500942
37.45540096431466
36.15515105534674
38.75584640087067
37.45562882303279
36.15536827465747
38.75613602094425
37.45591907704686
36.15564842588889
38.75649847630713
37.45628813607998
36.15601008300931
38.75695098607716
37.45675774374836
36.15647886418266
38.75501700042145
37.45482185818407
38.75504008148761
37.45484383111988
36.15463070680435
38.75508710603022
37.45488868851473
36.15467206207453
38.75515985026226
37.45495831798124
36.15473645579339
38.75526110936413
37.45505571744184
36.15482693621676
38.75539486071017
37.45518520925444
36.15494795050036
38.75556649008742
37.45535274957367
36.15510572335866
38.75578308363897
37.45556635247373
36.15530879910046
38.75605378011473
37.4558366493808
36.15556880077208
38.75639015813888
37.45617759683945
36.15590147429229
38.75680659207629
37.45660732127535
36.15632807880809
34.85441436938622
33.55416942464802
32.25391283040175
34.85443397446278
33.55418568967827
32.25392511880974
34.85447423584109
33.55421913685711
32.25395040840053
34.85453736423948
33.55427170240662
32.25399020880527
34.85462696306259
33.55434656294738
32.25404701003238
34.85474842340906
33.55444851489185
32.2541246002304
34.85490954627023
33.55458458166596
32.25422858162624
34.85512150174625
33.55476496667555
32.25436719685425
34.8554003115698
33.55500454549026
32.25455266353253
34.85576919488287
33.55532519446602
32.25480337802799
34.85626252178201
33.55575929187886
32.25514769770934
34.85440916311452
33.55416512261919
32.25390954210498
34.85442845202999
33.55418112217767
32.25392162926804
34.85446804684484
33.55421400826939
32.25394649271724
34.85453008396409
33.55426565135941
32.25398559027392
34.85461803930966
33.55433911428649
32.25404132166731
34.85473709959682
33.55443900878337
32.25411732702247
34.85489474365377
33.55457206231376
32.25421896807206
34.85510163147188
33.55474799934841
32.25435409123607
34.85537296485826
33.55498090346596
32.25453424427235
34.85573061949015
33.55529130700404
32.25477666041452
34.85620672564315
33.55570928491656
32.25510768744928
34.85439894477993
33.55415667978432
32.25390308812003
34.85441762136791
33.55417216545843
32.25391478587562
34.85445592657959
33.55420396666027
32.2539388257263
34.85451585619542
33.55425382957094
32.25397656766863
34.85460064586495
33.55432460294163
32.25403024180056
34.85471509933581
33.55442055333644
32.25410321213011
34.8548660965118
33.55454786017194
32.25420039621866
34.85506335835514
33.55471537142231
32.254328917369
34.85532059311237
33.55493573673722
32.25449911111671
34.85565724639714
33.55522703256578
32.25472606935846
34.85610140859683
33.55561464456737
32.25503197118051
36.15461048650772
34.85438408857082
33.55414440664063
32.25389370457854
34.85440189410664
33.55415916191481
32.25390484919647
34.85443836792602
33.55418942390003
32.25392772136532
34.85449531318579
33.55423676883563
32.25396354751781
34.85457563844171
33.55430375473968
32.25401432786522
34.85468363076177
33.55439418427041
32.25408305643629
34.85482537206771
33.5545135116079
32.25417406558724
34.8550093538012
33.55466945378594
34.85524737534578
32.2542935503098
33.55487289999873
32.25445035502012
34.85555586203882
33.55513927437259
32.25465712978475
34.85595780673987
33.55549074193169
32.2549319135158
57.3404389000494
56.00711685581734
54.67380610378193
53.34050662003465
52.00721828922644
50.67394079695602
49.34067346488274
48.00741500844936
46.67416319076474
45.34091434120926
44.00766270805233
57.34042394827238
56.00710149029155
54.67378989693344
53.34048911649853
52.00719899173886
50.67391915242551
49.34064885156924
48.00738672623833
46.67413045828661
45.34087630631426
44.0076184820236
57.34039455317865
56.00707129311213
54.67375806981657
53.34045477992792
52.00716118864831
50.67387682311148
49.34060081136739
48.00733164996207
46.67406687876328
45.34080263957813
44.00753309925098
57.34035170005524
56.00702729745576
54.67371175478917
53.34040490020215
52.00710639687687
50.67381563851097
49.34053159355267
48.00725258395572
46.67397598152378
45.3406978050234
44.00741220797173
42.67439963078973
42.67434836062301
42.67424973585049
42.67411086707789
41.3574489318878
41.35777865922917
40.05778467597073
41.3577197471681
40.05771785551788
41.35760689481942
40.05759055113884
40.05741351567735
38.75773054747698
37.45758866966178
36.15732909883604
38.75765588137526
37.45750807272884
36.15724590212929
38.75751490564311
37.45735635067339
36.15708979165861
38.75732043314625
37.45714906735239
36.15687709085209
34.85693360376683
33.88170576349273
32.58099065017076
34.85685077160278
33.88166270134599
32.5809533555919
34.8566962466687
33.88152389289807
32.58083039084743
34.85648524692722
33.55596128813825
32.58065852060783
31.27987080317675
31.28010317958404
31.28007701626148
31.27999066987942
57.34056797692119
56.00724999199479
54.67394751083781
53.34066081765779
52.00739026717365
50.67413618307702
49.34089869416362
48.0076774787202
46.6744713741023
45.34127779135954
44.00809185663606
57.34055166995989
56.00723318693273
54.67392968900173
53.34064141846694
52.0073686653835
50.67411166421095
49.34087042831992
48.00764449410313
46.67443253385471
45.34123178135166
44.00803719895406
57.34051962413251
56.0072001762515
54.67389471014254
53.34060338991618
52.00732638544842
50.67406376630934
49.3408153342837
48.00758036854773
46.67435724703496
45.34114289593057
44.00793201023386
57.34047293888347
56.00715211836314
54.67384385543122
53.34054820983533
52.00726519209769
50.67399465527969
49.34073612713535
48.00748856002
46.67424996793724
45.34101691257813
44.00778379707054
57.34059233740965
56.0072753016805
42.67490519143644
42.67484030961191
42.67471599128614
42.67454193612734
41.35836929080067
40.05846564359764
41.35829280873214
40.05837645910677
41.35814700962105
40.05820763593742
41.35794420458638
40.05797439386976
38.75850419246179
37.45844188392149
36.48354615077749
38.75839978548778
37.45832597567964
36.48348109698239
38.75820714932471
37.45811081663761
36.48309455942396
38.75794381171116
37.45782394209148
36.15757747975447
35.18321830755474
33.88268205298593
32.58135882724672
35.1831489848073
33.88257747444477
32.58131125542355
35.18276453725534
33.88220540720256
32.58141420434326
32.58127396066482
31.44251883556932
31.28032949138244
31.44310017528523
32.58138317624562
31.9308875538606
31.93090877966019
32.09405278484699
32.0940382986282
32.74456116325567
32.74458666718123
31.93084552438008
32.58124336015043
31.93078609855005
32.09394965168077
32.09390748901299
32.74450288370154
32.74441469314468
31.44289770722633
31.44345937069828
31.44344024556683
31.2802818447787
31.44339796241767
31.44333344269723
57.34069528047669
56.00738159719516
54.67408791310724
53.34081490922776
52.00756355822347
50.67433504865628
49.34113065152275
48.00795149265651
46.67479817281031
45.34167014431517
44.00856470473205
57.34081956763409
56.0075103766025
54.67422591280322
53.34096734500382
52.00773641871707
50.674535431843
49.34136717205322
48.00823477886054
46.67514146589943
45.3420899922434
44.00908169797837
57.34093777808461
56.00763313234424
54.67435803033546
53.3411142068094
52.00790431754128
50.67473199530994
49.34160190613653
48.00851977923171
46.6754923579383
45.34252716487519
44.00963186178219
57.34067760554919
56.00736333265925
54.67406844047461
53.34079355053068
52.00753954196867
50.67430747065177
49.34109842915726
48.00791331202337
46.67475243008797
45.34161488722465
44.00849758906176
57.34080052716475
56.00749064882306
54.67420477160844
53.34094398361898
52.00770990143285
50.67450463561349
49.3413307136704
48.00819092303625
46.67508800990038
45.34202412399525
44.00899982116925
57.3409174115919
56.00761197763901
54.67433524912441
53.34108885577729
52.00787528308886
50.67469791124811
49.3415610455997
48.00846990931938
46.67543054258615
45.34244949955605
44.00953312089111
57.34064288543378
56.00732747129622
54.67403024251514
53.3407517094473
52.00749257707094
50.67425365548067
49.34103570924754
48.0078392118935
46.67466395378579
45.341508426938
44.00836887955288
57.34076313891307
56.00745193117842
54.67416332243769
53.34089824987345
52.00765808977164
50.67444460547372
49.34125984582726
48.00810595668672
46.67498484347125
45.34189758348554
44.00884342837227
57.34087743372911
56.00757047625918
54.6742906067768
53.34103925848934
52.00781859951399
50.67463154196339
49.34148172788162
48.00837345857872
46.67531150710396
45.34230070324192
44.00934508381382
54.67397475698086
53.34069106474013
52.00742469808915
50.67417614290598
49.34094573635566
48.0077334121872
46.6745383073757
45.34135816588835
44.00818845456008
57.34070874031502
56.00739564587982
54.67410316576542
53.34083203463199
52.00758330830397
50.67435829119977
49.3411584071174
48.00798497714317
46.67483884710768
45.34171977488216
44.00862544245985
57.34081930095228
56.00751018366697
54.67422586792776
53.34096752302392
52.00773689359199
50.67453627297722
49.34136843739169
48.00823650466349
46.67514365631423
45.34209261885274
44.00908472643975
42.67547539392805
42.67611483778172
42.6768128061201
42.67539369487132
42.67601230264963
42.67668592629012
42.6752379060032
42.67581817728387
42.67644629617836
42.67502109122823
42.67554990548055
42.67611829334699
41.36073200399226
41.35905298201673
40.05927483016296
41.35984365951479
39.73507477859954
39.73623390710275
41.35895405175197
40.0591576253323
41.3597142934583
40.06008371841263
41.36056714280421
40.38619831155607
41.35876662805594
40.05893511016941
41.3594742952392
40.05979176359751
41.36026268676983
39.73551085138251
41.35850741946129
40.05862828095884
41.35914459445408
40.05938880628582
41.35984778433555
40.38552314137002
39.08341041751903
37.78421656506767
36.48412919145036
39.08524066091309
37.7855104595592
35.67285397198677
39.08653418106324
37.9493346939644
35.67490861856523
39.25023906444623
37.95120324561751
35.67773044226438
38.7593095975467
37.78412683289087
36.48404787300827
39.08510720916745
37.78535991082509
35.67269610027915
39.08636235295881
37.94915486212836
35.67465967931242
39.24999718194933
37.95095590799318
35.67733115160415
38.75904913177323
37.13367783565161
36.48359346185185
39.08515989607763
37.13480708580562
35.67191649406738
39.08571897643014
37.94868971362241
35.99849111181797
39.24954951490388
37.95035658746696
36.00042204514832
38.75869036933915
37.13349983407755
35.34584560611876
34.04570296789893
32.09429940050177
35.34779062273307
34.04729465543505
31.77022352308036
35.34991416474014
34.04960678759919
31.77220445550218
35.35288103991275
34.05308624761723
31.77559788978176
35.18374390369394
34.04563059859036
32.09418258099001
35.34762992628755
34.04712407180887
31.7700849067074
35.3496548629333
34.0493150554823
31.77194102796595
35.35245706900301
34.05256784209655
31.77505374904124
35.18327127311693
34.04469991885886
32.0939542422654
35.346836066283
34.04630249999312
31.76975886631502
35.34841977277201
34.04795841370488
31.77133904099026
35.35050345608511
34.0502631264108
31.77386201123126
31.44366967382618
31.44479174051063
31.44662471222191
31.44981488397487
31.44359867436165
31.44466429954391
31.44637947178031
31.44929872418767
31.44342811230409
31.4443650325944
31.44582063379872
31.44817395869987
36.97291877678717
37.94892440734989
36.97418500137749
37.78546066202046
37.13553694393472
37.94881849769221
36.97407758360861
35.67275844152182
35.67433196929144
35.67419774392737
36.64793076926318
36.6492486678775
36.64778082182234
36.64913322979614
39.08647467240357
39.24985683469882
39.08719915841152
38.2742102998322
38.27549181991694
38.27411951122233
38.27536524414749
36.97466579989706
37.95070107563748
36.97630270227023
37.94922872068594
36.97454376583255
37.95056432785875
36.97613484804694
35.67475782966881
35.67694030364112
35.67672519996896
36.64975337842281
36.65148643649922
36.64962382219492
36.65130725506729
39.25006532809117
38.27596062042426
38.27582264143364
36.97691749127918
37.95105371605398
36.97673162651581
35.67748797777907
36.65214275545044
36.65194355474832
35.67411022234324
35.67242681254233
35.67373603595932
36.64773310516149
36.64905610311873
36.64747753310188
36.6487225675689
36.97446310424689
37.95047528141762
36.97602550715783
37.94880151087807
36.9741126022692
37.9500883135147
36.97555741407722
35.67658585806065
35.6742410169832
35.67599632380805
36.64953855859653
36.65119068017673
36.64917095179208
36.65069323434174
39.24967737749922
38.27573152923713
38.27533709135993
36.9766107184546
37.95053400194105
36.97609468635464
35.67666963425059
36.65181414910288
36.65126349176965
35.99768790680604
35.67231526958584
35.67357968565537
36.64737984561298
36.64858311871175
36.48477783011887
36.64766319032813
36.97396552138041
37.94992516484508
36.97536159014112
37.78607843317753
36.97345668078875
37.94891219740117
37.29917786152667
35.99939895006366
35.67406641341549
35.67575256209091
36.64901685633001
36.65048572527923
36.64848361270793
36.32436883679011
39.08695145405126
38.27517118495296
38.27459490100075
36.97587935082574
37.94974156494742
37.30001659799155
35.67639702863238
36.65103439129188
36.65025073661909
35.18382967945454
35.3473604072261
35.34727598213895
34.69598620000615
34.69601926767503
34.37201210571617
34.37192203737526
34.04573345558959
33.39530675074479
33.39532713603749
34.04684571886121
33.07117612013461
34.04675491444488
33.07108830062636
32.09428235046367
31.76986284180352
31.76979041691924
32.74483596724885
32.7448648064432
32.74589341054704
32.74580817179087
35.34769371307314
35.34931498963358
35.3491757052783
34.37245961715254
34.37408615505085
34.37235720211683
34.37393459831202
33.07161099348041
34.0489391482864
33.07323929651353
34.04719139110563
33.07151022797527
34.0487849134272
33.0730837065199
31.77013939528533
31.77161080866885
31.77147529871714
32.74631611637621
32.74791023785934
32.74621799036298
32.74775701379038
35.3497570034493
35.35204457393295
35.35181722916834
34.374741177047
34.37713919551403
34.37456788156472
34.37687694004929
33.07391625983413
34.05207595757775
33.07649853317857
34.04942964447245
33.07373513460671
34.05180363540101
33.07620639395358
31.77204404510656
31.77455919526076
31.77428422104499
32.74857808657243
32.75115172310548
32.74839892685105
32.75085812565113
35.35262343669653
34.37810992414573
34.3778076564333
33.07759045869653
34.05277047075026
33.07724525666584
31.77526486256262
32.75225199519555
32.75190286001186
35.18361672981441
35.3472193213813
35.34697167646263
34.69580507749433
34.69574782362839
34.37186275351389
34.37160843774289
33.39518656753319
34.04551499411244
33.39513170759381
34.04669556461046
33.07103122901896
34.04644163230024
33.07078822415887
32.09413474936569
31.76974343874721
31.76954389934717
32.74477012671369
32.74467114944739
32.74575280709682
32.74551719028926
35.34908503398908
35.34735468343757
35.34869816857531
34.37229021543504
34.37383627964388
34.37200356561566
34.37341921882521
33.07144481429365
34.04868496780483
33.07298318875118
34.04683662818244
33.07116678043956
34.04826184931832
33.07256013875551
31.77138805663396
31.76985429235571
31.77102346660014
32.74615433237239
32.74765811643131
32.74588406245216
32.74724266784023
35.35167016612495
35.34922016698614
35.35104970119737
34.37445565515588
34.37670802715175
34.37398111927204
34.37600157686176
33.07361835332398
34.05162850160151
33.076019382523
34.04883159174818
33.07312886413966
34.05089826143013
33.07524688833364
31.77410924740089
31.77151269276374
31.77339510071298
32.74828353367934
32.75067047133825
32.74780089099272
32.74989773577598
35.35175742576291
34.37761337010664
34.3768041734773
33.07702490628003
34.05172677278155
33.07611991486568
31.77419856465124
32.75168039455708
32.75076996414106
33.39473450144699
34.04565779363953
33.39526995555042
34.04522164682565
33.39491805984858
34.04633554106798
33.07068663870735
32.09381200599025
31.76946098337218
32.0942501982955
32.74431681457006
32.41953608905817
32.74454448301291
32.74541886646354
35.02248303334964
34.37146961462326
34.69736878932746
35.34723992177111
35.34853677841693
34.37188389332258
34.37324625232211
33.39589575922115
33.72186623567845
33.39664028523433
34.04671663397327
33.07105104911572
34.04808674910316
33.07238621993466
31.77087479544755
32.09477758364646
32.09541781139402
32.74538816679517
32.42077198061951
32.74577174434084
32.74707224296601
35.02434826618127
34.69824882340184
34.69927348034381
35.3490392634835
35.35079394835017
34.37378501498795
34.37571325865733
33.39752947304527
33.72382725271961
33.39859327779469
34.04863229022159
33.07292858175007
34.05060126909672
33.07493605176732
31.77311163971581
32.09619950646602
32.09715859519095
32.74694629277813
32.42259572677643
32.7476038910404
32.74958790502592
34.70046268139411
35.35147009442408
34.37647549088894
33.39986608465549
34.05138647105462
33.07575814170163
32.09833982527916
32.74923469160675
32.75040748679061
31.44364787299876
31.44446050383035
31.44439407561389
31.44471437989472
31.44607302380337
31.44594728395233