/*--------------------------------*- C++ -*----------------------------------*\
  =========                 |
  \\      /  F ield         | OpenFOAM: The Open Source CFD Toolbox
   \\    /   O peration     | Website:  https://openfoam.org
    \\  /    A nd           | Version:  7
     \\/     M anipulation  |
\*---------------------------------------------------------------------------*/
FoamFile
{
    version     2.0;
    format      ascii;
    class       surfaceScalarField;
    location    "0";
    object      phi;
}
// * * * * * * * * * * * * * * * * * * * * * * * * * * * * * * * * * * * * * //

dimensions      [0 3 -1 0 0 0 0];

internalField   nonuniform List<scalar> 
36833
(
1.841281578185857
-2.034929328058211e-05
8.612377314420866e-06
1.841293582929922
-2.066908491141619e-05
8.664341137887243e-06
1.841306119361079
-2.130209324296726e-05
8.765662414589298e-06
1.841319442673296
-2.223438308820576e-05
8.911071096751839e-06
1.841333793268731
-2.34431252628333e-05
9.092530106613613e-06
1.841349388561952
-2.489440096553608e-05
9.29910800553346e-06
1.841366412202035
-2.654050326677677e-05
9.516863435976597e-06
1.841385000412387
-2.831700024770335e-05
9.728790203666858e-06
1.841405225493006
-3.013996534467582e-05
9.914884988715169e-06
1.84142707702987
-3.190394899842441e-05
1.00524123663794e-05
-3.348144296701986e-05
1.011644695354525e-05
1.841450442026101
1.841281258394233
-4.054231240584072e-05
8.775895043051847e-06
1.841292949921638
-4.119343596432571e-05
8.832824145254016e-06
1.841305187071214
-4.248331460081929e-05
8.944072158722258e-06
1.841318233931148
-4.438558741822417e-05
9.104344816845476e-06
1.841332341993038
-4.68567139531135e-05
9.305527299829834e-06
1.841347742459661
-4.983137354926013e-05
9.536506492506332e-06
1.84136463570502
-5.321673645617504e-05
9.782988351532131e-06
1.841383177447312
-5.6886102955966e-05
1.002736089819009e-05
1.84140346150933
-6.067269713813216e-05
1.024867017918063e-05
1.841425499535916
-6.43647690048217e-05
1.042279376863813e-05
-6.770356033559657e-05
1.052290696408338e-05
1.841449198746702
1.84128060727069
-6.04117463199583e-05
9.103433340736601e-06
1.841291660042955
-6.141675054478693e-05
9.170542815039555e-06
1.841303284798443
-6.34102347256481e-05
9.302165040026011e-06
1.841315762804612
-6.635659259266553e-05
9.492999457760685e-06
1.841329367333415
-7.019607925904485e-05
9.734836855867544e-06
1.841344357096744
-7.483741434555213e-05
1.001627791256495e-05
1.841360966338499
-8.01483871457193e-05
1.032240934904626e-05
1.841379390853149
-8.594510920985227e-05
1.063449208262802e-05
1.841399769437487
-9.198101750484966e-05
1.09297364570882e-05
1.8414221607446
-9.793734336938087e-05
1.118126766437313e-05
-0.0001034174931029203
1.135840917498916e-05
1.841446516268533
1.841279602266468
-7.976857008312125e-05
9.59582736623003e-06
1.841289666558765
-8.115987010186361e-05
9.678827723292108e-06
1.841300338440576
-8.392442376984184e-05
9.842307671848534e-06
1.84131192331796
-8.80225369996879e-05
1.00810674535716e-05
1.841324725998319
-9.338567764171127e-05
1.03869185181793e-05
1.841339046123949
-9.990577786347287e-05
1.074823836231332e-05
1.841355169616435
-0.0001074213001053473
1.114942091362491e-05
1.841373354944849
-0.000115700711925438
1.157027474363279e-05
1.841393813111615
-0.0001244246378178104
1.198545403977592e-05
1.841416680594847
-0.0001331688742616459
1.23640481035639e-05
-0.0001413916554067304
1.266950560818714e-05
1.841441985251983
1.841278210966451
-9.839216702161707e-05
1.02539006390532e-05
1.841286902005123
-0.000100210141671788
1.035923343297648e-05
1.841296240327353
-0.0001038303356089222
1.056759007664933e-05
1.841306560177301
-0.0001092165124604991
1.087412592428684e-05
1.841318205898119
-0.0001163024057242233
1.127100770759171e-05
1.841331530601721
-0.0001249772212901235
1.174674030326467e-05
1.841346890204633
-0.0001350661944172771
1.228529188068735e-05
1.841364631018962
-0.0001463065850089151
1.286505922593051e-05
1.841385068875198
-0.0001583202519456888
1.345775840837453e-05
1.841408457813728
-0.0001705852004434405
1.402738818256921e-05
-0.0001824103287002662
1.452950036171419e-05
1.84143494698705
1.841276392991801
-0.0001160218329341922
1.107794422391723e-05
1.841283281811172
-0.0001183119572046178
1.121299664013233e-05
1.841290854150486
-0.0001228839232254586
1.148124888063965e-05
1.841299474284028
-0.0001297153305919386
1.187868504866193e-05
1.841309531082516
-0.0001387576997493801
1.239849600156366e-05
1.84132144162858
-0.0001499178808188617
1.303011398588012e-05
1.841335649814013
-0.0001630322828041421
1.375790341486754e-05
1.841352617352001
-0.0001778336426383476
1.455952012716677e-05
1.841372803926674
-0.0001939108271975734
1.540400110400242e-05
1.841396632685445
-0.0002106636943089094
1.624973567260213e-05
-0.0002272576021173815
1.704260543051719e-05
1.841424437353965
1.84127410286753
-0.0001323504482408216
1.206701799105728e-05
1.84127870984517
-0.0001351592341836445
1.22402999426447e-05
1.841284022743125
-0.0001407826829144875
1.258586219878763e-05
1.841290431914857
-0.00014922580276313
1.310130097462772e-05
1.84129837090147
-0.0001604786671838912
1.378198132786384e-05
1.841308327226614
-0.000174493936118971
1.461973069183387e-05
1.841320848454174
-0.0001911545021848547
1.560099237250019e-05
1.841336540167475
-0.0002102297427435183
1.670438736312008e-05
1.84135605105957
-0.0002313193971989929
1.789767857931469e-05
1.841380038777658
-0.000253785652295269
1.913424054578172e-05
-0.000276677198014074
2.034933445342962e-05
1.841409109039716
1.841271294081594
-0.0001470213402399168
1.321808051102414e-05
1.841273086396384
-0.0001503908861813164
1.343933781532313e-05
1.841275579623328
-0.0001571582056767863
1.388229631973295e-05
1.84127917905046
-0.0001673725919930223
1.454736260089097e-05
1.841284355632482
-0.000181089137969606
1.543388925488818e-05
1.841291666660553
-0.0001983434822608083
1.653851860337155e-05
1.841301773213587
-0.0002191137922007531
1.785273749987937e-05
1.841315450513008
-0.0002432665127474517
1.935947112281649e-05
1.841333584804481
-0.0002704822509542737
2.102856299299776e-05
1.841357147231896
-0.0003001591709543199
2.281109196187214e-05
-0.0003312944826227912
2.46327238969654e-05
1.841387131793361
1.841267924535657
-0.000159629573332154
1.452496764084267e-05
1.841266319076936
-0.0001635906251963992
1.480519836150013e-05
1.841265365236978
-0.0001715727601614214
1.536839493558728e-05
1.841265462504467
-0.0001836893640741333
1.621950522738992e-05
1.84126710128821
-0.0002000924768408719
1.736455569303254e-05
1.84127089635065
-0.0002209472681001113
1.880872393149448e-05
1.841277620493045
-0.0002463912731185825
2.055333911954449e-05
1.841288234774765
-0.0002764722355031102
2.259144167280395e-05
1.841303907884473
-0.0003110568372854738
2.49014774382772e-05
1.841326011920266
-0.0003497019462344042
2.743874032517921e-05
-0.0003914818052377048
3.012441744665133e-05
1.841356074826322
1.841263963483797
-0.0001697290507519955
1.59772637715605e-05
1.841258336941962
-0.000174292677310326
1.63285944790657e-05
1.841253248633066
-0.0001835218776733427
1.703742688161701e-05
1.841249059391714
-0.0001976157491960573
1.811562694799993e-05
1.841246246496951
-0.000216859255034568
1.957967347721074e-05
1.841245452345632
-0.0002416018097867021
2.144869352553755e-05
1.84124753953067
-0.0002722196233073471
2.374116573582328e-05
1.841253650172973
-0.0003090525142750118
2.646963720107698e-05
1.841265262775536
-0.0003523020253722175
2.963258632604574e-05
1.841284232061248
-0.000401873647753348
3.320241677582522e-05
-0.0004571435874964891
3.710866328532347e-05
1.841312785181216
1.84125939985725
1.755913920931086e-05
-0.0001768467770128115
1.841249107741589
1.79945146067765e-05
-0.0001819950756655147
1.841239154761539
1.887634745401147e-05
-0.0001924452445809096
1.841229815885868
2.022652976054666e-05
-0.0002085034027162705
1.841221503942194
2.207705212700022e-05
-0.0002306243630061693
1.841214834532096
2.446848507986427e-05
-0.0002594008841156169
1.841210706639671
2.744701338284225e-05
-0.0002955387436145429
1.841210400661893
3.105901094815161e-05
-0.0003398055467251706
1.841215691153145
3.53416521952501e-05
-0.0003929341679585872
1.841228962121527
4.030751029913189e-05
-0.0004554521254566385
4.592075305482861e-05
1.841253294812311
-0.000527397030248072
1.841281633927665
-2.017388714857841e-05
1.699360700208447e-05
1.841293691617679
-2.048835250925039e-05
1.709500418141849e-05
1.841306275341552
-2.11107123910602e-05
1.729265137958204e-05
1.841319637325128
-2.202705758185549e-05
1.757614559951785e-05
1.841334014865652
-2.321464233070356e-05
1.792963239151863e-05
1.841349622149096
-2.463974262938254e-05
1.833156763038816e-05
1.84136663953673
-2.625502997258704e-05
1.875450620107222e-05
1.84138520003701
-2.799672225936136e-05
1.916501262340846e-05
1.841405373019185
-2.9781912597436e-05
1.952381582125822e-05
1.841427145720026
-3.150663936899515e-05
1.978635132047933e-05
-3.304543165437745e-05
1.990384525987956e-05
1.841450403753711
1.841281319462325
-4.019096074696255e-05
1.731477662473451e-05
1.841293069257802
-4.083116378745506e-05
1.742584069515848e-05
1.841305358996365
-4.209918689432976e-05
1.764280867296477e-05
1.841318449740413
-4.396867599905878e-05
1.795521979426422e-05
1.841332589765372
-4.63961918317662e-05
1.83470524637885e-05
1.841348006861779
-4.931672079016277e-05
1.879638884877747e-05
1.841364897844443
-5.263809735822632e-05
1.927507374941415e-05
1.841383414846703
-5.623483085305211e-05
1.974846781900366e-05
1.841403648292435
-5.994211456574686e-05
2.017542703155065e-05
1.841425606927757
-6.355115096128167e-05
2.050867058815215e-05
-6.680731370558527e-05
2.069572317964206e-05
1.841449195994045
1.841280679259285
-5.988355323275016e-05
1.795803682266622e-05
1.841291801234661
-6.087151123288606e-05
1.808891556263114e-05
1.841303489507311
-6.283082151981034e-05
1.834552754137776e-05
1.841316022224561
-6.572576966370385e-05
1.87173763066538e-05
1.841329669236387
-6.949658859412011e-05
1.918822239976205e-05
1.841344685485183
-7.405223737102418e-05
1.973554620467648e-05
1.841361301110922
-7.926124846811075e-05
2.032993533873666e-05
1.841379707562993
-8.494129134326647e-05
2.093450117004466e-05
1.841400039256037
-9.084854494290086e-05
2.150447439362592e-05
1.841422350765008
-9.666856996388836e-05
2.198717830230681e-05
-0.0001020110746048137
2.232262734684866e-05
1.84144659030818
1.841279691301281
-7.906265217136991e-05
1.892489537149943e-05
1.841289841924379
-8.042999613657629e-05
1.908669014999728e-05
1.841300594559158
-8.314641038279348e-05
1.940526229762183e-05
1.84131225140564
-8.717181992533617e-05
1.987027182733452e-05
1.841325113587601
-9.243731155535082e-05
2.046546010035638e-05
1.84133947647409
-9.883468076530378e-05
2.116779588455354e-05
1.841355621068047
-0.0001062028466711986
2.194642578499183e-05
1.84137380030937
-0.0001143117913166911
2.276153405887588e-05
1.841394219231013
-0.000122845290916931
2.356327897052111e-05
1.841417008260358
-0.0001313846025801306
2.429105198721684e-05
-0.0001393964314524216
2.487340071020877e-05
1.841442189722677
1.841278323957354
-9.750821213572181e-05
2.021677364721852e-05
1.841287125510149
-9.929430637627206e-05
2.042199145139491e-05
1.841296569149605
-0.0001028502500823657
2.082779081942975e-05
1.841306985913988
-0.0001081389177861815
2.142446001983197e-05
1.84131871621841
-0.0001150929444308632
2.219633673973673e-05
1.841332108308194
-0.000123600541111422
2.312051155285785e-05
1.841347512123434
-0.0001334865180049114
2.416514859504559e-05
1.841365266809802
-0.0001444889298958465
2.528751208015914e-05
1.84138567991937
-0.0001562325094681682
2.643186811011081e-05
1.841408996431504
-0.0001682012792159071
2.752755334256527e-05
-0.0001797145106368404
2.848766644574237e-05
1.841435356345343
1.841276537863081
-0.0001149608494569765
2.183398873834522e-05
1.841283569566428
-0.0001172099647747803
2.209695244806425e-05
1.841291280481883
-0.0001216990000045826
2.261908390721601e-05
1.841300031887357
-0.0001284038254851794
2.339218788449663e-05
1.841310208621707
-0.0001372736293823386
2.440244721017402e-05
1.841322222331286
-0.0001482126924891923
2.562855640920223e-05
1.841336509711525
-0.0001610551937437171
2.703919960677506e-05
1.841353523230197
-0.0001755328347976324
2.858990712838099e-05
1.8413737111496
-0.0001912358491722443
3.021942219558788e-05
1.841397483200069
-0.0002075694741541448
3.184588095509845e-05
-0.0002237104603917236
3.33633704235371e-05
1.84142515838564
1.841274288747769
-0.0001311156987932455
2.377439007433916e-05
1.841279080531223
-0.0001338730213571555
2.411157378790548e-05
1.841284575656402
-0.0001393919927559006
2.478373045784625e-05
1.841291162083451
-0.0001476746065471667
2.578565569481403e-05
1.841299269558633
-0.0001587066587969249
2.710753627863776e-05
1.841309379830037
-0.0001724356445034319
2.873241189547818e-05
1.84132203207048
-0.0001887390459857771
3.063260485710839e-05
1.841337820215841
-0.0002073816235586214
3.276503161823519e-05
1.841357377524631
-0.0002279608846935996
3.50654061409697e-05
1.841381342213843
-0.0002498414787716958
3.744155674922771e-05
-0.0002720823886808058
3.976645748109479e-05
1.841410297020033
1.841271531425221
-0.0001456194370900465
2.603166395281513e-05
1.841273561559788
-0.0001489257219878328
2.646190461064154e-05
1.84127629304264
-0.0001555640616195609
2.732288306049428e-05
1.841280130031237
-0.0001655788777652912
2.861464587115379e-05
1.841285540572912
-0.000179018104198038
3.033479359260138e-05
1.841293076428514
-0.0001959082237232527
3.247524291793991e-05
1.841303389492893
-0.0002162168458024299
3.501747369938419e-05
1.841317240954666
-0.0002397995647267609
3.792595142615931e-05
1.84133549693059
-0.0002663277598409017
4.113946317323291e-05
1.841359101303922
-0.0002951950736632938
4.456031462245361e-05
-0.0003254035205366498
4.804181353653317e-05
1.841389013347175
1.841268225140311
-0.00015807168934309
2.859334996837855e-05
1.841266923220203
-0.0001619564719512534
2.91378692480751e-05
1.84126627822647
-0.0001697823827795798
3.023171057745524e-05
1.841266690804758
-0.0001816553865738446
3.188343644813778e-05
1.841268650453401
-0.0001977163109506209
3.410311453473517e-05
1.841272767806473
-0.0002181153619416487
3.689850982479447e-05
1.841279806773969
-0.0002429716784888569
4.026920522699624e-05
1.841290712759573
-0.0002723120793226775
4.419797151657843e-05
1.841306629616724
-0.0003059817574730738
4.863861898485293e-05
1.841328892857078
-0.0003435192269854104
5.349965445072558e-05
-0.000383989776222581
5.862353789981234e-05
1.841358979993537
1.841264340357682
-0.0001680321665117634
3.14386536503817e-05
1.841259097309347
-0.0001725056379812817
3.212080959656554e-05
1.841254405222685
-0.0001815492600578461
3.349639148555418e-05
1.841250629880392
-0.000195351375141489
3.55869583523314e-05
1.841248251402391
-0.0002141803067603055
3.842214789022567e-05
1.841247911489944
-0.0002383624670646829
4.203571180028121e-05
1.84125046637314
-0.0002682443453957563
4.645895020667496e-05
1.841257043081413
-0.0003041294743187453
5.171032481347932e-05
1.841269092147229
-0.0003461778871240995
5.77796512811542e-05
1.841288422307827
-0.0003942519849289283
6.460501530310611e-05
-0.0004476908228287951
7.204072910668564e-05
1.841317191289946
1.841259866886219
3.453620217916722e-05
-0.0001750348452438836
1.841250053687276
3.538088180105375e-05
-0.0001800788055215955
1.841240603107593
3.709076117336658e-05
-0.0001903130935150903
1.841231800948748
3.970624798959293e-05
-0.000206028933879242
1.841224069242088
4.328604829654623e-05
-0.0002276575954990784
1.841218029611568
4.790391128378927e-05
-0.0002557582619938395
1.841214581244216
5.364248921528708e-05
-0.0002909914530086833
1.841214994668633
6.058240114327629e-05
-0.0003340662878961385
1.841221018049403
6.878369439786874e-05
-0.0003856433089075782
1.841234983469946
7.825588382045069e-05
-0.0004461657774686193
8.891200202102788e-05
1.841259883769588
-0.0005155823697920953
1.84128174269685
-1.982936720178521e-05
2.492154743682406e-05
1.841293903634622
-2.013346284492801e-05
2.506752973374662e-05
1.841306579446965
-2.07350972325281e-05
2.535193675332659e-05
1.841320016511844
-2.162042316911084e-05
2.575950435577819e-05
1.841334446023254
-2.276687411040255e-05
2.626699554871459e-05
1.841350075836999
-2.414112701878329e-05
2.684288131090303e-05
1.841367079888656
-2.569661503095596e-05
2.744707004329647e-05
1.84138558492667
-2.737084748631723e-05
2.80308224645126e-05
1.841405654642081
-2.908292658787557e-05
2.853702738749837e-05
1.84142727175626
-3.073180455029816e-05
2.890104208574937e-05
-3.219598096367947e-05
2.905231512784215e-05
1.841450319267643
1.841281438601214
-3.950093289563901e-05
2.538901137257704e-05
1.841293302000238
-4.011988067107045e-05
2.554886009361237e-05
1.841305694121047
-4.13453774869696e-05
2.586096867502326e-05
1.841318870060931
-4.31511075907414e-05
2.630996485656069e-05
1.841333071770336
-4.549386539089893e-05
2.687233495575947e-05
1.84134852034903
-4.83092828646576e-05
2.751596656421391e-05
1.841365405656205
-5.150654302574858e-05
2.819969511456861e-05
1.841383872847587
-5.496256805279733e-05
2.887299763247118e-05
1.841404005764161
-5.851644002749059e-05
2.947602446772232e-05
1.841425807579832
-6.19651497046901e-05
2.994020051794184e-05
-6.50621269593148e-05
3.018965717451e-05
1.841449179792171
1.841280819653448
-5.884640012254747e-05
2.632512092798993e-05
1.841292076503379
-5.98011943674845e-05
2.651337994334824e-05
1.841303888390982
-6.169403971512109e-05
2.68823026602144e-05
1.841316527303093
-6.4489053931215e-05
2.741641105785688e-05
1.841330256352862
-6.812649050352006e-05
2.809179824107356e-05
1.841345323088831
-7.251585728340612e-05
2.887538522600153e-05
1.841361949631164
-7.752723256260197e-05
2.972408310080948e-05
1.841380318975595
-8.298142570104608e-05
3.058401493246282e-05
1.841400557054484
-8.864005687314602e-05
3.13900128716682e-05
1.841422710602572
-9.4197195250633e-05
3.206567640821089e-05
-9.927484960314815e-05
3.252434097985227e-05
1.841446721612002
1.841279864859203
-7.767684911559706e-05
2.773175546661542e-05
1.841290183658018
-7.899761298362025e-05
2.796431065738593e-05
1.841301093376785
-8.162045822281871e-05
2.84219626206288e-05
1.841312889866515
-8.550463593337558e-05
2.908936463366058e-05
1.841325866986068
-9.058059310973472e-05
2.994244368036866e-05
1.841340311713566
-9.673999470784976e-05
3.094720629346403e-05
1.841356495438021
-0.0001038228136565067
3.205828284080759e-05
1.841374660344428
-0.0001116021643809972
3.321736693867879e-05
1.841394999916091
-0.000119768143643096
3.435179456860309e-05
1.841417632948207
-0.0001279127943618619
3.537361950378615e-05
-0.0001355193938461615
3.617966785971519e-05
1.841442571225755
1.841278544095346
-9.577341887734291e-05
2.961051841207445e-05
1.841287560812788
-9.749756888275498e-05
2.990523044563782e-05
1.841297209199112
-0.0001009287226687372
3.048766955650481e-05
1.84130781390931
-0.0001060281280827338
3.13432424831155e-05
1.841319707584518
-0.0001127264406898727
3.24485097047999e-05
1.841333228894626
-0.0001209101511627573
3.376935858632891e-05
1.841348716087325
-0.0001304035117662074
3.525865460251447e-05
1.841366494365175
-0.0001409464372414959
3.685350777201352e-05
1.841386855265377
-0.0001521695847299342
3.847240961879806e-05
1.841410026348747
-0.0001635689915675852
4.001266790830222e-05
-0.0001744843230682136
4.134879085704321e-05
1.841436130154101
1.841276819945335
-0.0001128793730153854
3.196126785231561e-05
1.841284129658973
-0.0001150488722551978
3.233854301353752e-05
1.84129210979367
-0.0001193769748182728
3.308720186621168e-05
1.841301115596664
-0.0001258363427893983
3.419460014697534e-05
1.841311523874055
-0.0001343718693176823
3.563959906334945e-05
1.841323735534004
-0.0001448831740304968
3.738991994966837e-05
1.841338173161816
-0.000157200533275482
3.939859394329201e-05
1.841355271217665
-0.0001710541617256922
4.159957640124145e-05
1.841375455858547
-0.0001860375424342919
4.390273967405032e-05
1.841399111017218
-0.0002015669698898429
4.61887013270728e-05
-0.0002168418427741944
4.830430840622553e-05
1.841426527599644
1.84127465044611
-0.0001286943119010813
3.478015312430568e-05
1.841279801556411
-0.0001313518118568506
3.526340374091575e-05
1.841285650425718
-0.0001366682333971439
3.622612029180726e-05
1.841292580070146
-0.0001446399372561979
3.765960630630648e-05
1.841301012569318
-0.0001552447666999141
3.954793514656304e-05
1.841311418174783
-0.0001684206943724273
4.186432739570262e-05
1.841324319533385
-0.0001840353792772476
4.456609287295532e-05
1.841340287836971
-0.0002018454838028116
4.758805086228324e-05
1.841359926431082
-0.0002214452189332706
5.083448932197143e-05
1.841383836144331
-0.0002422051581442621
5.417003264085558e-05
-0.0002632053804585529
5.741032034343773e-05
1.841412555819964
1.841271992946105
-0.0001428715060427521
3.805718237817749e-05
1.841274485134875
-0.0001460552038002407
3.86731084688279e-05
1.84127767872188
-0.0001524437504661437
3.990481374155063e-05
1.841281975240719
-0.000162072432753103
4.175062315366541e-05
1.841287836641627
-0.0001749758109590227
4.420443766718735e-05
1.841295803489857
-0.000191163367286016
4.725106830045923e-05
1.841306509428804
-0.0002105832919645713
5.085944809420551e-05
1.841320688101845
-0.0002330715431929168
5.497333853156552e-05
1.841339166491906
-0.0002582833847859724
5.949923987711587e-05
1.841362835922027
-0.0002856058073370313
6.429153455570235e-05
-0.0003140524616256358
6.913557980681162e-05
1.841392589237785
1.841268809248362
-0.0001550195204519889
4.177338642818959e-05
1.841268096588252
-0.0001587566596485534
4.255198592503386e-05
1.84126805003956
-0.0001662803462494367
4.411485566266101e-05
1.841269071862499
-0.0001776826035216417
4.647178492172764e-05
1.841271649085328
-0.0001930832662488735
4.96333476331779e-05
1.841276383565202
-0.000212604664412197
5.360532772615832e-05
1.841284021177628
-0.0002363319137970165
5.83802153423887e-05
1.841295476260214
-0.0002642535472858754
6.392489391058343e-05
1.841311844069331
-0.0002961761348103664
7.016356088350224e-05
1.841334389267764
-0.0003316064610672242
7.695511086443677e-05
-0.0003695971004471605
8.406491246285988e-05
1.841364492533074
1.841265072109181
-0.0001647094135376637
4.589770780987841e-05
1.841260572901646
-0.0001690085452325651
4.687190338878079e-05
1.841256647782274
-0.0001776935650305911
4.883473024170147e-05
1.84125367119978
-0.000190932596331543
5.181353431233708e-05
1.841252127687156
-0.0002089627809311879
5.584517584959213e-05
1.841252656315831
-0.0002320676255131782
6.097004491780689e-05
1.841256099544125
-0.0002605385337784297
6.722234258864537e-05
1.84126355367269
-0.0002946123618370743
7.46150117490646e-05
1.841276413743081
-0.0003343738051597712
8.311725231129154e-05
1.841296398628366
-0.0003796086425609247
9.262231278882146e-05
-0.0004295929395063746
0.000102903585358287
1.84132553161237
1.841260772977492
5.038382708733045e-05
-0.0001714887456058267
1.841251887881839
5.158858785077761e-05
-0.0001763311550307902
1.841243408750998
5.402509921796148e-05
-0.0001861487715980338
1.84123564101516
5.774620740231466e-05
-0.000201204819230456
1.841229022842569
6.282788885592074e-05
-0.0002218864482635077
1.841224185407526
6.936393766802437e-05
-0.0002486902161616694
1.841222025716064
7.74563866110094e-05
-0.0002821927390122201
1.8412237922294
8.719908885387111e-05
-0.0003229955620408984
1.841231178905659
9.865077863682162e-05
-0.0003716275645047066
1.841246414331437
0.0001117927455453129
-0.0004283809287825068
0.0001264654352013405
1.841272317054376
-0.0004930490941486115
1.841281899292653
-1.932791671613531e-05
1.841294208719191
-1.96171377926275e-05
1.841307016646425
-2.018905662297483e-05
1.841320560899717
-2.102994194836666e-05
1.841335063778246
-2.211752406822143e-05
1.841350723952743
-2.341910572092234e-05
1.841367706082266
-2.488927104102948e-05
1.841386127934754
-2.646744275616097e-05
1.841406045122135
-2.807566060389976e-05
1.841427434027473
-2.961709505225783e-05
-3.097594952069613e-05
1.841450174106747
1.841281610071576
-3.849676436282003e-05
1.841293636800387
-3.908523628371975e-05
1.841306175761105
-4.024978835263444e-05
1.841319473317625
-4.196421822410039e-05
1.841333762196598
-4.418574213140755e-05
1.841349253787428
-4.68510289026298e-05
1.841366127910561
-4.9871325804606e-05
1.841384519716925
-5.312715281966608e-05
1.841404503687713
-5.646329686005397e-05
1.84142607517299
-5.968514304790459e-05
-6.255770211073254e-05
1.841449130554984
1.841281021599656
-5.733749750902462e-05
1.841292472248284
-5.824477507638512e-05
1.841304461331234
-6.004244021085017e-05
1.841317251793683
-6.269446978990348e-05
1.841331096909812
-6.614129558577634e-05
1.841346233490512
-7.029340640010065e-05
1.841362872083536
-7.502332698059533e-05
1.841381183572878
-8.015661824330054e-05
1.841401281841527
-8.54629415556474e-05
1.841423202613932
-9.064875118980361e-05
-9.535376553551021e-05
1.841446879308954
1.841280114322089
-7.566149243132261e-05
1.841290674583149
-7.691558040299298e-05
1.841301809301655
-7.940456597090762e-05
1.841313804967896
-8.30868919675393e-05
1.841326944799022
-8.789232587907149e-05
1.841341503569922
-9.371266042499469e-05
1.841357738792269
-0.0001003897617933163
1.841375877249575
-0.0001077016612689655
1.841396096031872
-0.0001153479430557451
1.841418497599577
-0.0001229364682040275
-0.0001299744545211093
1.841443079161138
1.841278860234141
-9.32517603615679e-05
1.841288185597605
-9.488734454521364e-05
1.841298126975687
-9.814019375162899e-05
1.841308999533936
-0.0001029694650704692
1.841321124464514
-0.0001093033461260903
1.841334826468554
-0.0001170263602055179
1.841350426892816
-0.0001259625819373795
1.841368230967788
-0.0001358553100536889
1.841388507506736
-0.0001463444475217859
1.841411459613298
-0.0001569439353142338
-0.0001670231109969223
1.84143718563228
1.841277224649943
-0.0001098555432735548
1.84128493274838
-0.0001119113622011912
1.84129329770434
-0.0001160098442198886
1.841302665652904
-0.0001221194165452743
1.841313401450407
-0.0001301793812258792
1.841325890246807
-0.0001400834589162514
1.841340534164686
-0.0001516573360760276
1.841357741830308
-0.0001646303007256442
1.841377908018949
-0.0001786018262968306
1.841401380437574
-0.0001930053632128941
-0.0002070737866098008
1.841428411024616
1.841275168831018
-0.0001251790292433009
1.841280834266399
-0.0001276942076795624
1.841287188132014
-0.0001327220839020156
1.841294605688205
-0.0001402514867927317
1.841303497372735
-0.0001502497174597364
1.841314316369647
-0.0001626423154071012
1.841327561200046
-0.0001772844714264766
1.841343770304746
-0.0001939232555940862
1.841363504482018
-0.0002121505056440382
1.841387312014177
-0.0002313477817377339
-0.0002506276467642012
1.841415670833584
1.841272653652538
-0.0001388851187852669
1.841275806390158
-0.0001418943161390695
1.84127965872915
-0.0001479276213132153
1.841284607457567
-0.000157008023229567
1.841291104774754
-0.000169152197080992
1.841299674213587
-0.0001843471272686481
1.841310922415872
-0.0002025157342488557
1.841325543054694
-0.0002234691731933329
1.841344307205958
-0.000246843724122737
1.841368032149141
-0.0002720215373410076
-0.0002980377055550322
1.84139751842622
1.84126964445521
-0.0001505953440812391
1.841269773085017
-0.0001541226665481976
1.841270578327183
-0.0001612173175451693
1.841272463283715
-0.0001719524871455002
1.841275909844583
-0.0001864198127634607
1.841281505606631
-0.0002047045022237625
1.841289968976966
-0.0002268469278070773
1.841302168503745
-0.0002527862142564851
1.841319129392716
-0.0002822806571409552
1.841342015980963
-0.0003148001896229111
-0.0003493887791445989
1.84137207395721
1.841266117132733
-0.0001598971350932043
1.841262678434006
-0.0001639489385496518
1.841259843157587
-0.0001721258350357857
1.841257995958102
-0.0001845685936956443
1.841257625155137
-0.0002014723961910865
1.841259363181052
-0.0002230634624993399
1.841264029690507
-0.0002495604329864491
1.841272674060846
-0.0002811133709493978
1.841286609860241
-0.0003177109280634516
1.841307427391428
-0.0003590444410903615
-0.0004043180470056705
1.841336961279765
1.841262065329289
-0.0001663575597632416
1.84125450153752
-0.000170914537380506
1.841247400398927
-0.0001801428686718509
1.841241092155627
-0.0001942678855309493
1.841236034088809
-0.0002136173538502816
1.841232866210561
-0.0002386041754431597
1.841232476752523
-0.0002696940150469563
1.841236076503762
-0.0003073479908229774
1.841245276347223
-0.0003519258981015128
1.841262153785522
-0.0004035299352671761
1.841289280060181
-0.0004617639827606758
-0.0002425859163725955
0.0001929199617738301
1.771476812706343e-05
1.841456388540749
-0.0002986544443408727
2.145679768261612e-05
1.841443720770627
-0.0003623514496855388
2.63867526701035e-05
1.841424442046708
-0.000434771450331862
3.28326827176083e-05
1.841395662145089
-0.000516633956408441
4.121614157526095e-05
1.841353431546679
5.206313415813167e-05
1.841292468583866
-0.0006078708608732373
-0.000293366061505651
0.000238571826014711
4.187216395708001e-05
1.84144467588979
-0.0003554368742133444
5.137534294815151e-05
1.841426095570668
-0.0004257784797871977
6.376245704298822e-05
1.841398391825891
-0.0005049983431934973
7.981577402433893e-05
1.841357811522236
0.0001005026028172872
1.84129936349801
-0.0005929175385737332
-0.0003421491663573305
0.0002831719626023915
7.373068530935375e-05
1.841429211099808
-0.0004085580211374627
9.113249454028445e-05
1.841403531351482
-0.0004828074975076308
0.0001135585903889443
1.841366038273563
0.0001422787485771221
1.841312264389117
-0.0005645309764097594
-0.0003845014565726501
0.000323482174579226
1.841410511512301
-0.0004519992666089936
1.841377178880094
1.841329658461816
-0.000525382808566309
-3.472472235249573e-05
1.008076853510332e-05
1.841475085980029
-7.038603852759256e-05
1.052034084838492e-05
1.841474339722318
-0.0001079485096322605
1.142743068527352e-05
1.841472651309175
-0.0001484299203631462
1.286011801455677e-05
1.841469606545061
1.491111379894279e-05
1.841464525915463
-3.42531913402488e-05
1.982508535714654e-05
1.841474912628513
-6.941299956043627e-05
2.068061940888235e-05
1.841474195524
-0.0001064116600915099
2.244503185495641e-05
1.841472571367973