/*--------------------------------*- C++ -*----------------------------------*\
  =========                 |
  \\      /  F ield         | OpenFOAM: The Open Source CFD Toolbox
   \\    /   O peration     | Website:  https://openfoam.org
    \\  /    A nd           | Version:  7
     \\/     M anipulation  |
\*---------------------------------------------------------------------------*/
FoamFile
{
    version     2.0;
    format      ascii;
    class       volVectorField;
    location    "0";
    object      U;
}
// * * * * * * * * * * * * * * * * * * * * * * * * * * * * * * * * * * * * * //

dimensions      [0 1 -1 0 0 0 0];

internalField   nonuniform List<vector> 
12685
(
(1.00000318717978 -5.525885677328919e-06 2.42223111968086e-06)
(1.000009634268511 -5.612725646046749e-06 2.436845945030762e-06)
(1.000016298466954 -5.784620145876323e-06 2.465342554103241e-06)
(1.000023320724853 -6.037785064743986e-06 2.506238745961443e-06)
(1.000030835622192 -6.366021084303845e-06 2.557274092485083e-06)
(1.000038967479888 -6.760117503572323e-06 2.615374126556304e-06)
(1.000047825207461 -7.207119417584596e-06 2.676617841368404e-06)
(1.000057495666847 -7.689530243675169e-06 2.736222244781328e-06)
(1.000068035482932 -8.184559552805642e-06 2.788561403076117e-06)
(1.000079461460955 -8.66357235932935e-06 2.827240978044199e-06)
(1.000091740088477 -9.091943562321429e-06 2.845250705684575e-06)
(1.000003100339814 -1.653522050967523e-05 2.468220480858353e-06)
(1.000009375534048 -1.679887420332636e-05 2.484231790852667e-06)
(1.000015873407541 -1.732103747681984e-05 2.515520294640653e-06)
(1.000022739323918 -1.809076785303924e-05 2.560596979737802e-06)
(1.000030113289752 -1.90900425437111e-05 2.617179553077096e-06)
(1.000038126381545 -2.029191290703525e-05 2.68214245085086e-06)
(1.000046895794716 -2.165821595525276e-05 2.751465474034936e-06)
(1.00005651822671 -2.313704958285417e-05 2.820195252615958e-06)
(1.000067061440813 -2.466033507076249e-05 2.882438487894552e-06)
(1.000078554076945 -2.614193635632839e-05 2.931410747429508e-06)
(1.00009097410261 -2.747696210172904e-05 2.959567583648466e-06)
(1.000002923526092 -2.741424870371436e-05 2.560340627082182e-06)
(1.000008848451552 -2.786397305866565e-05 2.579215166729883e-06)
(1.00001500657331 -2.875557589868418e-05 2.616233917507312e-06)
(1.000021551719792 -3.007222991475184e-05 2.669906097495195e-06)
(1.000028634477139 -3.178588780992369e-05 2.737922865712757e-06)
(1.00003639930647 -3.385402429902242e-05 2.817078162742367e-06)
(1.000044980070781 -3.621552925396266e-05 2.903177629585804e-06)
(1.000054493547733 -3.878606192633699e-05 2.99095089823914e-06)
(1.000065030596162 -4.145337940936014e-05 3.073988378556077e-06)
(1.000076644833924 -4.407341844644304e-05 3.144731530604937e-06)
(1.000089339016493 -4.64682170975281e-05 3.194552580465674e-06)
(1.000002650615465 -3.806620661145548e-05 2.69882644675222e-06)
(1.000008034206856 -3.871692715835749e-05 2.722170297175906e-06)
(1.000013665150685 -4.000898053772519e-05 2.768149032707414e-06)
(1.000019709012016 -4.192191881171671e-05 2.835300221317033e-06)
(1.000026331495371 -4.442090812591052e-05 2.921320833237936e-06)
(1.000033696740102 -4.745181512572671e-05 3.022942039400644e-06)
(1.000041963757091 -5.093487196903982e-05 3.135774631957027e-06)
(1.000051280376559 -5.475727039449654e-05 3.254139771646711e-06)
(1.000061774084302 -5.87653288160674e-05 3.370908948687002e-06)
(1.000073539239258 -6.275729185670136e-05 3.477388529127367e-06)
(1.00008662046703 -6.647834636253427e-05 3.563298452302624e-06)
(1.000002272805541 -4.837985533647493e-05 2.883909554733698e-06)
(1.000006905677619 -4.92513394040516e-05 2.913534403024593e-06)
(1.000011801581659 -5.09851286224075e-05 2.972134709057608e-06)
(1.000017139792209 -5.356060394824062e-05 3.058347916205652e-06)
(1.00002310458082 -5.69411605711959e-05 3.169970917760116e-06)
(1.000029885342622 -6.106736614946808e-05 3.303770710293178e-06)
(1.000037674615512 -6.584789721950585e-05 3.45523834144329e-06)
(1.000046663090883 -7.114853321924234e-05 3.618297907292935e-06)
(1.0000570305747 -7.677986230646746e-05 3.784994552355309e-06)
(1.000068931816382 -8.248494270008818e-05 3.945202926347575e-06)
(1.000082476303652 -8.792898706353777e-05 4.086421976732056e-06)
(1.000001779131396 -5.822449136731048e-05 3.115671812976742e-06)
(1.00000542893357 -5.934005271212703e-05 3.153655305037206e-06)
(1.000009355886144 -6.156464787312949e-05 3.229101247679924e-06)
(1.000013752980066 -6.488235393234324e-05 3.340880169936192e-06)
(1.00001882473316 -6.926201140015907e-05 3.487077000439767e-06)
(1.000024790003448 -7.46482389347678e-05 3.664719558528811e-06)
(1.000031882590018 -8.094915545236795e-05 3.86941033543149e-06)
(1.000040348411464 -8.802083768007624e-05 4.094865035765705e-06)
(1.000050437674816 -9.564895683631647e-05 4.332375310500676e-06)
(1.000062390114501 -0.0001035287946956811 4.570238157919382e-06)
(1.000076411260705 -0.0001112460329375509 4.793232777332942e-06)
(1.0000011572442 -6.744592118314463e-05 3.393848809984855e-06)
(1.000003565521119 -6.883053903877921e-05 3.44258435886878e-06)
(1.000006259280442 -7.159912149889625e-05 3.539773743409033e-06)
(1.00000944242868 -7.574694569555771e-05 3.684740899114072e-06)
(1.000013338695812 -8.125815136150298e-05 3.876182248461676e-06)
(1.00001819819857 -8.809458822018765e-05 4.11179925707827e-06)
(1.000024302016761 -9.618003213063251e-05 4.387779104765641e-06)
(1.000031963289495 -0.0001053792813752488 4.69810894587754e-06)
(1.000041522617686 -0.0001154720005924448 5.033722100432241e-06)
(1.000053334740279 -0.0001261220208431014 5.381505153501115e-06)
(1.000067742726265 -0.0001368443638288007 5.723250315027042e-06)
(1.000000394513539 -7.58638908394406e-05 3.717585143725586e-06)
(1.000001275733251 -7.754162751089991e-05 3.779813760559637e-06)
(1.000002439479492 -8.090636198814791e-05 3.904395839924909e-06)
(1.000004093950203 -8.597283995533477e-05 4.091445731500571e-06)
(1.000006477090625 -9.275332639744198e-05 4.340781352937278e-06)
(1.000009868122684 -0.000101244643786163 4.651458357198311e-06)
(1.000014597896864 -0.0001114090626975418 5.021082421841125e-06)
(1.000021056443001 -0.0001231476900666705 5.444851253292195e-06)
(1.000029694935352 -0.0001362651027332729 5.914283341780565e-06)
(1.000041017751261 -0.0001504246718327056 6.415619614276524e-06)
(1.000055558528419 -0.0001650957581039765 6.927953596021597e-06)
(0.9999994795075253 -8.327158428896778e-05 4.085147148986997e-06)
(0.9999985230499673 -8.526222076205146e-05 4.163962039171865e-06)
(0.9999978280680024 -8.926746054689612e-05 4.322361075633937e-06)
(0.9999975954642755 -9.533147944927107e-05 4.561735845203447e-06)
(0.9999980668919786 -0.0001035105247134636 4.883781288665366e-06)
(0.9999995424622743 -0.0001138591261775934 5.289953605732816e-06)
(1.000002398970484 -0.0001264087030804079 5.780626627371879e-06)
(1.00000710724945 -0.0001411359531867313 6.353842970476082e-06)
(1.000014245635918 -0.0001579179420651038 7.003540529515484e-06)
(1.000024504084907 -0.0001764709068267974 7.717145716456666e-06)
(1.000038670107905 -0.0001962711471345307 8.472492406870642e-06)
(0.9999984038770667 -8.94379022297478e-05 4.493605435751416e-06)
(0.9999952798569971 -9.175279335311866e-05 4.592417197237206e-06)
(0.9999923702208072 -9.64265611361647e-05 4.791776310454812e-06)
(0.9999898508860415 -0.0001035440609311297 5.09502007912501e-06)
(0.9999879494439053 -0.0001132239616714059 5.506783165465493e-06)
(0.9999869699443192 -0.0001256059995969095 6.03244505405745e-06)
(0.9999873210698534 -0.0001408296830811791 6.677202863200264e-06)
(0.9999895472040056 -0.0001590002553310105 7.4445854628029e-06)
(0.9999943599817095 -0.000180136242876873 8.334164904200379e-06)
(1.000002664546198 -0.0002040916483673642 9.338179718200883e-06)
(1.000015569337396 -0.0002304456885441989 1.043681154899724e-05)
(0.9999971646164062 -9.4113263572399e-05 4.93850790261868e-06)
(0.999991534391063 -9.675055361314898e-05 5.060957233155855e-06)
(0.9999860368004189 -0.0001020945202656534 5.308972721440738e-06)
(0.999980798063736 -0.0001102823559088927 5.688711495153768e-06)
(0.9999760049533102 -0.0001215149479974448 6.209170910718765e-06)
(0.9999719367408668 -0.0001360481453285886 6.88176142871187e-06)
(0.999969004714756 -0.0001541757634313746 7.719472513924418e-06)
(0.9999678006896546 -0.0001761985251887265 8.735346829167767e-06)
(0.9999691542428774 -0.0002023701731873024 9.939839679914037e-06)
(0.99997419463924 -0.000232808291861392 1.133648727163081e-05)
(0.9999844059777206 -0.0002673537022340248 1.29152117966705e-05)
(1.000003202316566 -5.478253839758958e-06 7.20168308901715e-06)
(1.000009678919645 -5.563647448632632e-06 7.244815871221288e-06)
(1.000016370338071 -5.732650347572381e-06 7.328900754277624e-06)
(1.000023415939663 -5.981485464038329e-06 7.449529695825874e-06)
(1.000030948655259 -6.303976150147969e-06 7.599983202766256e-06)
(1.000039091085905 -6.690964593323711e-06 7.771127522769524e-06)
(1.000047950371584 -7.129598654350582e-06 7.951322710253425e-06)
(1.000057611608388 -7.602558201738914e-06 8.126382045281466e-06)
(1.000068129752333 -8.087329713958912e-06 8.279634602638515e-06)
(1.000079520174876 -8.555682242442667e-06 8.392152287095612e-06)
(1.000091748348475 -8.973543940628349e-06 8.443207184692647e-06)
(1.00000311692296 -1.639217852735498e-05 7.33800140639843e-06)
(1.000009424523135 -1.665142036967743e-05 7.385249486532514e-06)
(1.000015952500051 -1.716475713752949e-05 7.477560233578863e-06)
(1.000022844613866 -1.792125523764643e-05 7.610502546874633e-06)
(1.000030239176135 -1.890294203349965e-05 7.777288058850651e-06)
(1.0000382654634 -2.008300515272143e-05 7.968626814402968e-06)
(1.000047038777978 -2.142356474731713e-05 8.172579966057629e-06)
(1.000056653877334 -2.28732234784887e-05 8.374451826710767e-06)
(1.000067176628297 -2.436471427276086e-05 8.556777340684749e-06)
(1.000078633960653 -2.581310685692865e-05 8.699474350180752e-06)
(1.000091002517556 -2.711518516240352e-05 8.78023972792275e-06)
(1.000002943074718 -2.717540681545492e-05 7.611038483457031e-06)
(1.000008906341028 -2.76175367472165e-05 7.666722668719907e-06)
(1.000015100503208 -2.849392470266417e-05 7.775913538353252e-06)
(1.000021677754774 -2.978771584607934e-05 7.93416818374154e-06)
(1.000028786905345 -3.147088433778953e-05 8.134610415978876e-06)
(1.000036570463189 -3.350105329377072e-05 8.367700532474587e-06)
(1.000045160153257 -3.581749477180704e-05 8.620971943605508e-06)
(1.000054670458867 -3.833661939151596e-05 8.87877935231416e-06)
(1.000065189868961 -4.094746357346912e-05 9.122121801929892e-06)
(1.000076769703991 -4.350794145812815e-05 9.328625428128716e-06)
(1.000089410722461 -4.584292441187535e-05 9.472791521766804e-06)
(1.000002674793022 -3.77310816439088e-05 8.021453270152941e-06)
(1.000008106005248 -3.837066794946614e-05 8.090301901696148e-06)
(1.000013782320962 -3.964036900603617e-05 8.225879053913516e-06)
(1.000019867654232 -4.151960406743915e-05 8.423814172921341e-06)
(1.000026525838681 -4.397342978596527e-05 8.677231486629685e-06)
(1.000033918852963 -4.694774070081328e-05 8.976384631598261e-06)
(1.000042203211878 -5.036309480076096e-05 9.308206883986025e-06)
(1.000051523908527 -5.41075181361088e-05 9.655821225872061e-06)
(1.000062005306229 -5.80289295653856e-05 9.998081158979559e-06)
(1.000073738499816 -6.192823219945359e-05 1.030924690086523e-05)
(1.000086764969535 -6.555462448968013e-05 1.055894240171577e-05)
(1.000002303488416 -4.794812263911234e-05 8.569877143180445e-06)
(1.000006997053669 -4.880444421685093e-05 8.657219498562847e-06)
(1.000011951567084 -5.050771383121301e-05 8.829950877188743e-06)
(1.000017344693992 -5.303696756621562e-05 9.083977296949977e-06)
(1.000023358768709 -5.635519882783921e-05 9.412690625644527e-06)
(1.000030180798166 -6.040266800962824e-05 9.806414584367871e-06)
(1.000038000375824 -6.508806023532312e-05 1.025168638379984e-05)
(1.000047004624105 -7.027778205340453e-05 1.073041068000417e-05)
(1.000057369154898 -7.578405786319506e-05 1.121895745832392e-05)
(1.000069244009067 -8.135306272909665e-05 1.168732730394401e-05)
(1.000082733728189 -8.665512651561835e-05 1.209857816459705e-05)
(1.000001818471442 -5.76963400014656e-05 9.256481145469811e-06)
(1.000005546414052 -5.879210811429412e-05 9.368423181221801e-06)
(1.000009549797606 -6.09767360149905e-05 9.590718596584472e-06)
(1.000014020169237 -6.423358976765413e-05 9.919933012450912e-06)
(1.000019160138241 -6.853057823375718e-05 1.035026527813471e-05)
(1.000025185991549 -7.381135222775318e-05 1.087275104878349e-05)
(1.000032328097836 -7.998330965587742e-05 1.147418522467045e-05)
(1.000040827910903 -8.690246196417811e-05 1.213577641578945e-05)
(1.000050930025552 -9.435563187218062e-05 1.283158780300976e-05)
(1.000062867431164 -0.000102041195958247 1.352689217637431e-05)
(1.000076838016813 -0.0001095507464431013 1.417668070928592e-05)
(1.0000012077203 -6.682251094925721e-05 1.008039601822624e-05)
(1.000003716657655 -6.818201778382849e-05 1.02239644868837e-05)
(1.000006510085433 -7.089970924499037e-05 1.051019793467831e-05)
(1.000009790851775 -7.496957421568033e-05 1.0936956563114e-05)
(1.000013781006257 -8.037395756392207e-05 1.150017682682855e-05)
(1.000018728066749 -8.70726087503092e-05 1.219279010284804e-05)
(1.000024909266085 -9.498722889206073e-05 1.300319922066081e-05)
(1.000032632301885 -0.0001039810813639835 1.391327408883927e-05)
(1.000042230420902 -0.0001138335958362574 1.48958675774133e-05)
(1.000054048894499 -0.000124210732906586 1.591194298922129e-05)
(1.000068419274714 -0.000134633402978904 1.690756648158494e-05)
(1.00000045896461 -7.514790328065125e-05 1.103899063045488e-05)
(1.000001469215764 -7.679448633737285e-05 1.122222443230253e-05)
(1.000002762241178 -8.009582511057819e-05 1.158895670085548e-05)
(1.000004545920916 -8.50645237572626e-05 1.2139314882596e-05)
(1.00000705710371 -9.17097416753559e-05 1.287244205085631e-05)
(1.00001057272022 -0.0001000244124925913 1.37851204278689e-05)
(1.000015419625217 -0.0001099664706129028 1.486974689979296e-05)
(1.000021981543952 -0.0001214328226789461 1.611152509206599e-05)
(1.000030700374013 -0.0001342249336471429 1.748475735925234e-05)
(1.000042067624028 -0.0001480056155359124 1.89482081018417e-05)
(1.000056600099228 -0.000162248328794121 2.043971365283855e-05)
(0.9999995611372375 -8.246784898830894e-05 1.212702682759348e-05)
(0.9999987687358252 -8.44205957679409e-05 1.235898776519292e-05)
(0.9999982400480191 -8.834838791473569e-05 1.282502967554328e-05)
(0.9999981769352081 -9.429206316105879e-05 1.352895234640881e-05)
(0.999998821117519 -0.0001023028799777113 1.447528225155963e-05)
(1.000000471337809 -0.000112428818523071 1.566765949378975e-05)
(1.000003500855894 -0.0001246934354736533 1.710634059746466e-05)
(1.000008373838852 -0.0001390647998907364 1.878452245951379e-05)
(1.00001565762805 -0.0001554116361671574 2.068315211900551e-05)
(1.000026025499351 -0.0001734439695767058 2.276392353088983e-05)
(1.00004024133443 -0.0001926369728268603 2.496036244085975e-05)
(0.9999985062178203 -8.855406430541316e-05 1.333572677475477e-05)
(0.9999955886768254 -9.082376261098952e-05 1.362639489643774e-05)
(0.9999928907737871 -9.540471335671514e-05 1.421263641576695e-05)
(0.9999905914288536 -0.000102376836153792 1.510385211571825e-05)
(0.9999889203483411 -0.0001118512367059836 1.631301225959139e-05)
(0.9999881821647264 -0.0001239573414957442 1.785498899788653e-05)
(0.999988783643852 -0.00013882159269447 1.974378260882755e-05)
(0.9999912633432629 -0.0001565336977577409 2.198811431659384e-05)
(0.999996321204332 -0.0001770950759035431 2.458469182702502e-05)
(1.000004842287366 -0.00020034304461467 2.750834027236605e-05)
(1.000017903692501 -0.0002258443006044686 3.069826661008609e-05)
(0.9999972914389283 -9.316043853542885e-05 1.465181476534296e-05)
(0.9999919180867655 -9.57449135390843e-05 1.501183024003524e-05)
(0.9999866869744696 -0.000100979863256385 1.574074930128357e-05)
(0.9999817304118556 -0.0001089955149479301 1.685609374222688e-05)
(0.999977240612171 -0.0001199818441463563 1.838337199395582e-05)
(0.9999735009818177 -0.0001341793359081338 2.03547364776108e-05)
(0.999970924499638 -0.0001518614452580429 2.280642260572399e-05)
(0.9999701003556485 -0.0001733031595686386 2.577414715054779e-05)
(0.9999718482811935 -0.0001987273075430849 2.92852537293148e-05)
(0.9999772762746497 -0.0002282168923718661 3.334595459629921e-05)
(0.999987830327974 -0.000261578496273718 3.792171236491815e-05)
(1.000003231853026 -5.384698854207317e-06 1.178863718610963e-05)
(1.00000976602967 -5.467276548407158e-06 1.185821266380671e-05)
(1.000016510491986 -5.630651403660645e-06 1.199379041154792e-05)
(1.000023601488818 -5.871063188163718e-06 1.218815155059323e-05)
(1.000031168705655 -6.182383917911031e-06 1.243030160802404e-05)
(1.000039331367227 -6.555564664583395e-06 1.27053137650713e-05)
(1.000048193149643 -6.977960116164781e-06 1.299419331806257e-05)
(1.000057835704166 -7.432600826025789e-06 1.327382861897751e-05)
(1.000068310744966 -7.897518857914482e-06 1.351711215229626e-05)
(1.000079630875413 -8.345274509504812e-06 1.369332939566843e-05)
(1.000091759631493 -8.742874142997713e-06 1.376892010871362e-05)
(1.00000314927533 -1.611124528907328e-05 1.20104403742439e-05)
(1.000009520077115 -1.636189931284751e-05 1.208663459717478e-05)
(1.000016106705346 -1.68580599493777e-05 1.223543737812238e-05)
(1.00002304975631 -1.758882084889408e-05 1.244958318321105e-05)
(1.000030484204173 -1.853632150250846e-05 1.271795271224731e-05)
(1.000038535791028 -1.967403371834824e-05 1.302534995990379e-05)
(1.000047316113483 -2.096465067919123e-05 1.335227874266191e-05)
(1.00005691614542 -2.235778094381136e-05 1.367478715806071e-05)
(1.000067398071289 -2.3787759039792e-05 1.396447073433701e-05)
(1.000078785520135 -2.517201774827852e-05 1.4188744998922e-05)
(1.000091052605327 -2.641060689488059e-05 1.431151322443861e-05)
(1.000002981198995 -2.67063878474543e-05 1.2454638117039e-05)
(1.000009019215 -2.713374020043836e-05 1.254439561155632e-05)
(1.000015283570451 -2.798053139939211e-05 1.272032724353164e-05)
(1.00002192322727 -2.922987144377581e-05 1.297512769626865e-05)
(1.000029083492785 -3.085380354029466e-05 1.329750580590113e-05)
(1.00003690303805 -3.281027512641398e-05 1.367182446454521e-05)
(1.000045509402415 -3.503934423304342e-05 1.407769268628894e-05)
(1.000055012595805 -3.745892933832807e-05 1.448958265299753e-05)
(1.000065496508171 -3.996060045346472e-05 1.487657454353062e-05)
(1.000077008027563 -4.240615401804052e-05 1.520236538783282e-05)
(1.00008954409275 -4.462598932515153e-05 1.542570984205121e-05)
(1.000002721922975 -3.70731237175291e-05 1.312218304805327e-05)
(1.000008245933559 -3.769105544448107e-05 1.323309397674349e-05)
(1.00001401057411 -3.891729900900943e-05 1.345140700825801e-05)
(1.000020176484171 -4.073104508854278e-05 1.376989775532098e-05)
(1.000026903800486 -4.309718219207897e-05 1.417722293832887e-05)
(1.000034350250335 -4.596171842866008e-05 1.465734436223445e-05)
(1.00004266745927 -4.924591772329259e-05 1.51888243010062e-05)
(1.000051994889203 -5.2839509375727e-05 1.57440659055622e-05)
(1.00006245084661 -5.65936061746693e-05 1.628861443254561e-05)
(1.000074120131258 -6.031435062753111e-05 1.678068885717774e-05)
(1.000087038202416 -6.375878162632098e-05 1.717117553545763e-05)
(1.000002363267267 -4.710071932766752e-05 1.401392589184267e-05)
(1.000007175039701 -4.792757093785174e-05 1.415453115787416e-05)
(1.000012243580811 -4.957154481106913e-05 1.44324732312311e-05)
(1.000017743344094 -5.201105229348118e-05 1.484091632928702e-05)
(1.000023852819442 -5.520837556164875e-05 1.536886306219278e-05)
(1.000030754302519 -5.910327237003564e-05 1.600027597614661e-05)
(1.000038631611471 -6.360456250703024e-05 1.671294464964677e-05)
(1.000047664907353 -6.858000819921153e-05 1.747716183375657e-05)
(1.000058021666912 -7.384515899984712e-05 1.825432811108893e-05)
(1.000069842852106 -7.91523815219464e-05 1.899568722647334e-05)
(1.000083223533094 -8.418204381726545e-05 1.964150361690793e-05)
(1.000001895071364 -5.666002538466334e-05 1.512991591612342e-05)
(1.00000577510807 -5.771735255039203e-05 1.530998309857545e-05)
(1.000009927092747 -5.982439199000725e-05 1.566739287377665e-05)
(1.000014539653413 -6.296319683165665e-05 1.61962841338516e-05)
(1.000019811580415 -6.709997211412034e-05 1.688682551392889e-05)
(1.0000259540634 -7.217663572058211e-05 1.772394647576593e-05)
(1.000033190723438 -7.80993743001138e-05 1.868562943645598e-05)
(1.000041754292707 -8.472430058160768e-05 1.974079224287306e-05)
(1.000051878473283 -9.184072849918024e-05 2.08468580258357e-05)
(1.000063783246438 -9.915329987652718e-05 2.194722626636105e-05)
(1.00007765186579 -0.0001062652950347921 2.296903467153703e-05)
(1.000001305940105 -6.559975064342168e-05 1.646846527461889e-05)
(1.000004010673095 -6.691053060139052e-05 1.669921243014738e-05)
(1.000006997736528 -6.952951775015051e-05 1.715902052317354e-05)
(1.000010467763966 -7.344830018479562e-05 1.784397993764869e-05)
(1.000014639380546 -7.864589684760722e-05 1.87468513380046e-05)
(1.000019754900336 -8.507820564189919e-05 1.98553329258111e-05)
(1.00002608394661 -9.266320039147391e-05 2.114963373691335e-05)
(1.000033923553154 -0.0001012615416756875 2.259930444781236e-05)
(1.00004359266762 -0.0001106526464078448 2.415934559878554e-05)
(1.000055418285568 -0.0001205070864920198 2.576575951596095e-05)
(1.000069709886856 -0.0001303576511324821 2.733096876281677e-05)
(1.000000584291403 -7.374416607757737e-05 1.802498803059185e-05)
(1.000001845340963 -7.533035339163923e-05 1.83192224284343e-05)
(1.00000338932317 -7.850885768501521e-05 1.890778972590824e-05)
(1.000005423274319 -8.328827289045702e-05 1.97902319132303e-05)
(1.000008181674946 -8.967196721110572e-05 2.096415879164885e-05)
(1.000011936759849 -9.764567191387209e-05 2.242302503017491e-05)
(1.000017007387404 -0.0001071593805527357 2.415288425461392e-05)
(1.000023764846688 -0.0001181024685356346 2.612792530061018e-05)
(1.000032632928471 -0.0001302711294602409 2.830463523291039e-05)
(1.000044078241712 -0.0001433279776993486 3.06145825810233e-05)
(1.000058585280472 -0.0001567553622861059 3.295614187748276e-05)
(0.9999997197527857 -8.089282184986529e-05 1.97906446115348e-05)
(0.9999992459814904 -8.277218705721508e-05 2.016277176677056e-05)
(0.9999990398170355 -8.655007798342412e-05 2.090997175536589e-05)
(0.9999993046544425 -9.226106588495263e-05 2.203740601060796e-05)
(1.000000281981522 -9.994707700441642e-05 2.3550879984892e-05)
(1.000002267486993 -0.0001096439051594288 2.545420431103889e-05)
(1.000005627149988 -0.0001213605946680178 2.774514953513953e-05)
(1.000010811804241 -0.000135049485772571 3.040955590138915e-05)
(1.000018367158458 -0.000150564438511075 3.341311308764207e-05)
(1.000028934052747 -0.0001676050556482565 3.669040274472302e-05)
(1.000043230833845 -0.0001856462172870096 4.013112666450146e-05)
(0.999998704926201 -8.682294328167317e-05 2.175085166053174e-05)
(0.9999961880848387 -8.900520649788949e-05 2.221670052712853e-05)
(0.999993900444343 -9.340670866655944e-05 2.31556279856241e-05)
(0.9999920262753004 -0.0001000980930619154 2.458138856193804e-05)
(0.9999907988356759 -0.0001091762972945849 2.65126848021566e-05)
(0.9999905232421894 -0.000120751527005598 2.897036907696235e-05)
(0.9999916018067991 -0.0001349260267139638 3.197286359868392e-05)
(0.9999945610028447 -0.0001517610011842486 3.552900090788231e-05)
(1.000000077358596 -0.0001712269233539602 3.962725413537545e-05)
(1.000008996462939 -0.0001931316876231617 4.422018602618769e-05)
(1.00002233450503 -0.0002170214332632446 4.920308844294039e-05)
(0.9999975374895751 -9.129518976741364e-05 2.388375823103593e-05)
(0.9999926622161086 -9.377759102145551e-05 2.446016334007704e-05)
(0.9999879469304693 -9.880201382754192e-05 2.562633573472798e-05)
(0.9999835350658123 -0.0001064855912915229 2.740850307914069e-05)
(0.9999796285475752 -0.0001169978510313172 2.984454482346508e-05)
(0.9999765177575732 -0.0001305506208013011 3.298158251836399e-05)
(0.9999746176758066 -0.00014737961287154 3.687155882614602e-05)
(0.9999745109076057 -0.0001677124965686464 4.156354406119817e-05)
(0.9999769964720199 -0.0001917158891761296 4.709094554100668e-05)
(0.9999831395428296 -0.0002194109611821119 5.345117700978727e-05)
(0.9999943106780392 -0.0002505450350011389 6.05749042186245e-05)
(1.000003274376884 -5.248529108260901e-06 1.606302828760513e-05)
(1.00000989139977 -5.327067592237716e-06 1.615577948235639e-05)
(1.000016712060494 -5.482373134687149e-06 1.633640726694818e-05)
(1.000023868040551 -5.710716994599588e-06 1.659507136908556e-05)
(1.000031484287554 -6.006051794387673e-06 1.691680425070908e-05)
(1.000039675116608 -6.359498536284964e-06 1.728132037071017e-05)
(1.000048539190544 -6.75872446372782e-06 1.766286067477346e-05)
(1.000058153202901 -7.18727971395754e-06 1.803016011221334e-05)
(1.000068564235279 -7.623994043300332e-06 1.834664870026258e-05)
(1.000079780975973 -8.042573223399093e-06 1.857101472944337e-05)
(1.000091764277826 -8.411572499154516e-06 1.865826595297687e-05)
(1.000003195838403 -1.570239184471632e-05 1.636258202605543e-05)
(1.000009657555746 -1.594073089142171e-05 1.646411929461386e-05)
(1.000016328411089 -1.641227256003029e-05 1.666229322530475e-05)
(1.000023344361891 -1.710617280345599e-05 1.694718291429382e-05)
(1.00003083550601 -1.800476625248532e-05 1.730362775593625e-05)
(1.00003892244393 -1.908197621243016e-05 1.771094993592133e-05)
(1.00004771140936 -2.030136897101298e-05 1.814268452400124e-05)
(1.000057287933318 -2.161404966067728e-05 1.856640931054677e-05)
(1.000067708941771 -2.295669965815831e-05 1.89437949160249e-05)
(1.000078993397517 -2.425017672347659e-05 1.923102127015123e-05)
(1.00009111190027 -2.539922436543101e-05 1.937972407615116e-05)
(1.000003036037837 -2.60239590427854e-05 1.696236920015493e-05)
(1.000009181519054 -2.643013239320228e-05 1.708190185030048e-05)
(1.000015546618577 -2.723452758604814e-05 1.731604923320858e-05)
(1.000022275546853 -2.842024717421812e-05 1.765479717090896e-05)
(1.000029508484142 -2.995949731113165e-05 1.808269729681581e-05)
(1.000037378513884 -3.181077337962087e-05 1.857840979457861e-05)
(1.000046007117095 -3.391535829942965e-05 1.911419306903801e-05)
(1.000055497872219 -3.619343783175377e-05 1.965543942006321e-05)
(1.000065928108222 -3.854031474419334e-05 2.016039448853472e-05)
(1.000077338451266 -4.082342817661901e-05 2.058024074700651e-05)
(1.000089720522162 -4.288113130048823e-05 2.085976438852706e-05)
(1.000002789665051 -3.611610502690473e-05 1.786344029811337e-05)
(1.000008446987201 -3.670302756552057e-05 1.80110155591208e-05)
(1.000014338296307 -3.786707495452908e-05 1.830131251088531e-05)
(1.000020619392161 -3.958718012841209e-05 1.872435548211364e-05)
(1.000027444979809 -4.182809548798568e-05 1.926452457285803e-05)
(1.000034966582949 -4.453613021543542e-05 1.989981468950893e-05)
(1.000043328744909 -4.763372669291584e-05 2.06009378469027e-05)
(1.000052662976883 -5.101323969514101e-05 2.133037137048544e-05)
(1.000063078951431 -5.453054194188674e-05 2.204150885281183e-05)
(1.000074652580956 -5.799943457677317e-05 2.267814069463053e-05)
(1.000087410930714 -6.118826665330595e-05 2.31745679772682e-05)
(1.000002449115301 -4.586868502565576e-05 1.906659599869148e-05)
(1.00000743054913 -4.665338048162472e-05 1.925349260680444e-05)
(1.000012662466016 -4.821258561430964e-05 1.962269708721813e-05)
(1.000018314526316 -5.052392453649685e-05 2.016464083181169e-05)
(1.000024559534058 -5.354882472953633e-05 2.086399968121832e-05)
(1.000031572882679 -5.722654439535476e-05 2.169855389624013e-05)
(1.000039530007606 -6.146636920273204e-05 2.263772981812297e-05)
(1.000048601056968 -6.613831548847974e-05 2.364091605349267e-05)
(1.000058941913336 -7.106301985710357e-05 2.465572101027205e-05)
(1.000070680726555 -7.600200612580529e-05 2.561644613558879e-05)
(1.000083899355473 -8.065020098118938e-05 2.644318690214739e-05)
(1.000002004969598 -5.515413848712405e-05 2.057145170220057e-05)
(1.000006103086617 -5.615654536648022e-05 2.081053301554871e-05)
(1.00001046775225 -5.815281203536919e-05 2.128474662792709e-05)
(1.000015283153048 -6.112327388703399e-05 2.198565113964443e-05)
(1.000020742359953 -6.503194751368086e-05 2.289921654568126e-05)
(1.00002704903847 -6.981861467530823e-05 2.400416525021497e-05)
(1.000034416973814 -7.538816739157141e-05 2.526975705428349e-05)
(1.000043066326231 -8.159738568576791e-05 2.665307216203252e-05)
(1.000053215260791 -8.823972090963962e-05 2.809593860564341e-05)
(1.000065065399833 -9.502933537390241e-05 2.952180365967103e-05)
(1.000078779578098 -0.0001015866575397569 3.083307366817736e-05)
(1.000001446708421 -6.382404339497719e-05 2.237519023122922e-05)
(1.00000443187559 -6.506530561616822e-05 2.268118648381453e-05)
(1.000007695737501 -6.754358393165348e-05 2.32904856613631e-05)
(1.000011435390838 -7.12472711650622e-05 2.41969858909564e-05)
(1.000015864193272 -7.615100524252748e-05 2.538970957206386e-05)
(1.000021216662797 -8.220570595849685e-05 2.685051993416436e-05)
(1.000027751236595 -8.932471497035073e-05 2.855095078415322e-05)
(1.000035749503456 -9.736583641441021e-05 3.044811174919154e-05)
(1.000045509963648 -0.000106109469451458 3.247972925884023e-05)
(1.000057333789916 -0.0001152338281526974 3.455858052783005e-05)
(1.000071499652622 -0.0001242896133711145 3.656691076194536e-05)
(1.000000763707374 -7.170707467617485e-05 2.447102040874678e-05)
(1.000002383546083 -7.320722845274715e-05 2.486069684786318e-05)
(1.000004285786706 -7.621091132799965e-05 2.563954504579872e-05)
(1.000006675731732 -8.072133246495052e-05 2.680567176098936e-05)
(1.000009783925159 -8.67341405844919e-05 2.835394837190769e-05)
(1.000013875328739 -9.422558141625981e-05 3.027304983765002e-05)
(1.000019256843351 -0.000103135400681076 3.254117560285318e-05)
(1.000026281571749 -0.0001133436336753456 3.512023791856402e-05)
(1.00003534726905 -0.0001246406744645273 3.794837293602521e-05)
(1.000046885255908 -0.0001366908064759669 4.093084208238905e-05)
(1.000061334854522 -0.0001489910223950345 4.392982763821122e-05)
(0.9999999465546452 -7.860891879564629e-05 2.684638513894553e-05)