/*--------------------------------*- C++ -*----------------------------------*\
  =========                 |
  \\      /  F ield         | OpenFOAM: The Open Source CFD Toolbox
   \\    /   O peration     | Website:  https://openfoam.org
    \\  /    A nd           | Version:  7
     \\/     M anipulation  |
\*---------------------------------------------------------------------------*/
FoamFile
{
    version     2.0;
    format      ascii;
    class       volVectorField;
    location    "0";
    object      grad(Phi);
}
// * * * * * * * * * * * * * * * * * * * * * * * * * * * * * * * * * * * * * //

dimensions      [0 1 -1 0 0 0 0];

internalField   nonuniform List<vector> 
12683
(
(-1.000012485549295 3.820574842411409e-06 3.752247514141895e-06)
(-1.0000208007082 1.081134094216283e-05 9.991955483150873e-06)
(-1.000019942208106 3.594146189958641e-06 3.322478893669021e-06)
(-1.000029497852229 1.666193581839622e-05 1.472626355948009e-05)
(-1.000027791086062 9.958226612982802e-06 8.809006144390008e-06)
(-1.000026881402303 3.312621702195084e-06 2.931627409956382e-06)
(-1.000038609416811 2.108268511535901e-05 1.815172145056489e-05)
(-1.000035913589741 1.50044336037491e-05 1.294433362148425e-05)
(-1.000034150022316 8.978005255733094e-06 7.755921116795925e-06)
(-1.000033206269245 2.988282020915906e-06 2.583308787051927e-06)
(-1.000048038999057 2.384383602693786e-05 2.045901520923769e-05)
(-1.000044332473224 1.85105934586982e-05 1.594062655740911e-05)
(-1.000041602532089 1.319448558195771e-05 1.139459020935634e-05)
(-1.000039807237644 7.903248147589322e-06 6.838251727490734e-06)
(-1.000038843303178 2.631927706150897e-06 2.279480442936013e-06)
(-1.000057638364088 2.479510030328768e-05 2.184708240890158e-05)
(-1.000052953800917 2.031469913788012e-05 1.800250692807984e-05)
(-1.000049258767256 1.579950129193535e-05 1.406826805477685e-05)
(-1.000046520935053 1.127740339396125e-05 1.007882689677664e-05)
(-1.000044712580192 6.761123307053026e-06 6.057760743900761e-06)
(-1.000043738956764 2.252608459679669e-06 2.020841678708503e-06)
(-1.000061652135856 2.032913839267179e-05 1.93382575732989e-05)
(-1.000057034598068 1.668753277228583e-05 1.59888685512571e-05)
(-1.000053369768968 1.299847184688117e-05 1.252886447260672e-05)
(-1.000050640910074 9.288821202713145e-06 8.994580573294246e-06)
(-1.000048832032579 5.573221606214303e-06 5.41361905696854e-06)
(-1.000047855935639 1.857553810769079e-06 1.807222387343373e-06)
(-1.000070297812838 1.854957121838459e-05 2.016447093015566e-05)
(-1.000064831730996 1.581967368269317e-05 1.736866588860906e-05)
(-1.000060284467463 1.300589853481237e-05 1.440315954076767e-05)
(-1.000056657478826 1.014332272741826e-05 1.131357300712202e-05)
(-1.000053946185294 7.255300343345009e-06 8.136989357689285e-06)
(-1.000052143847584 4.355853088056086e-06 4.903480500927015e-06)
(-1.000051169545455 1.452260826137473e-06 1.637934518040336e-06)
(-1.000078787547166 1.505576390958826e-05 2.070467455396622e-05)
(-1.000072562804245 1.322763364575139e-05 1.842384322060186e-05)
(-1.000067195808539 1.129655790410573e-05 1.591513205388946e-05)
(-1.000062710949024 9.298114415745537e-06 1.323007803986407e-05)
(-1.000059120367159 7.258431722334548e-06 1.041274153274128e-05)
(-1.000056428379713 5.19548029098694e-06 7.500347334107211e-06)
(-1.000054635072096 3.120681569823784e-06 4.524391165831541e-06)
(-1.000053664359351 1.040696349013801e-06 1.512071065896842e-06)
(-1.000087073972622 1.000415054464009e-05 2.118325632440927e-05)
(-1.000080177822614 9.010943144982523e-06 1.937339096962909e-05)
(-1.000074057018844 7.925216114701389e-06 1.728002613486515e-05)
(-1.000068761250226 6.774495823314042e-06 1.495799813294155e-05)
(-1.000064322593645 5.580391126192036e-06 1.24562601494554e-05)
(-1.000060760112951 4.358991541386658e-06 9.817662408787008e-06)
(-1.000058083935446 3.12158586945889e-06 7.079332078506549e-06)
(-1.000056298631526 1.875586761235284e-06 4.27351397692332e-06)
(-1.000055331392534 6.255772550812388e-07 1.428745429454292e-06)
(-1.000095190490615 2.409623486077163e-06 2.181632002949911e-05)
(-1.000087688798062 2.218834042277927e-06 2.043460371039213e-05)
(-1.000080866481596 1.999739859925866e-06 1.871463839824056e-05)
(-1.000074799251567 1.75972805482868e-06 1.671323261102602e-05)
(-1.000069540633528 1.504918044403779e-06 1.448311885129673e-05)
(-1.000065126453305 1.240139187119803e-06 1.207192448253125e-05)
(-1.000061579172416 9.690116040683087e-07 9.521846187659192e-06)
(-1.000058911784493 6.94099543396876e-07 6.869906251458253e-06)
(-1.00005713108071 4.171122390816449e-07 4.148664880735303e-06)
(-1.000056165905035 1.391334206180935e-07 1.387269196374136e-06)
(-1.000079022723761 7.363729432219297e-05 7.799315655553683e-05)
(-1.000066219496798 6.720128091997083e-05 7.109851640753864e-05)
(-1.000055406379172 6.021943787026809e-05 6.364503625281021e-05)
(-1.000046423959847 5.295425560913888e-05 5.591145020116794e-05)
(-1.000039084638374 4.559474073495536e-05 4.809729059195254e-05)
(-1.000033196967847 3.826610782842197e-05 4.033357657081177e-05)
(-1.000028581976595 3.104095865580352e-05 3.269499152930862e-05)
(-1.000025083263795 2.39503227440484e-05 2.521181960415856e-05)
(-1.000022572670785 1.699370793534213e-05 1.788076059981952e-05)
(-1.000020953077396 1.014785963959772e-05 1.067431027370683e-05)
(-1.000020094073231 3.37427528855635e-06 3.548778384970255e-06)
(-1.000084549975608 6.728127556288056e-05 6.652925337137301e-05)
(-1.000072487260697 6.174703530481557e-05 6.106321180469161e-05)
(-1.000062126282818 5.561839994228098e-05 5.500950557863863e-05)
(-1.000053376324501 4.91365402413013e-05 4.860570780079154e-05)
(-1.000046112949849 4.248186860755786e-05 4.20294716348701e-05)
(-1.000040199260171 3.578010005178522e-05 3.540460495599858e-05)
(-1.000035501133549 2.911039291519921e-05 2.880914806047135e-05)
(-1.000031897473772 2.251407541964392e-05 2.228399648889765e-05)
(-1.000029286668058 1.600307553456528e-05 1.584120198612059e-05)
(-1.000027590377041 9.567637487772989e-06 9.471558836502367e-06)
(-1.00002668657466 3.183231236478243e-06 3.151385069462963e-06)
(-1.000089193104641 6.035155101002947e-05 5.660137225527546e-05)
(-1.000077882372419 5.567656291605141e-05 5.229581728938654e-05)
(-1.000068016874236 5.039166399889435e-05 4.74030108594891e-05)
(-1.000059560491182 4.471242736125989e-05 4.212217450507769e-05)
(-1.000052441078563 3.880559683588902e-05 3.660829577621123e-05)
(-1.000046568443539 3.279231946851085e-05 3.097500530276033e-05)
(-1.000041848001227 2.675372372173972e-05 2.529959803341942e-05)
(-1.000038190581175 2.073754985032503e-05 1.962901806158282e-05)
(-1.000035519108716 1.476499237140777e-05 1.398605230624587e-05)
(-1.000033772921694 8.837290224605809e-06 8.375308409722286e-06)
(-1.000032838960696 2.941880140161457e-06 2.788806357282325e-06)
(-1.000093026520277 5.311342380576158e-05 4.814783230244765e-05)
(-1.000082447147708 4.923140709500696e-05 4.476942305133559e-05)
(-1.000073090418373 4.475337856235664e-05 4.082334462060623e-05)
(-1.000064962391665 3.986709051084793e-05 3.647463080856533e-05)
(-1.000058033057742 3.472208923382949e-05 3.185646684385164e-05)
(-1.000052251133285 2.943090363749533e-05 2.707097206354342e-05)
(-1.000047555903168 2.407259313552672e-05 2.21920259168199e-05)
(-1.000043886205123 1.86975877367602e-05 1.726923994448753e-05)
(-1.000041186927684 1.33330722532632e-05 1.233244110691921e-05)
(-1.000039413489272 7.988453404272767e-06 7.3962676338006e-06)
(-1.00003846186175 2.660676207813461e-06 2.464680581367851e-06)
(-1.000096137696482 4.576060206162847e-05 4.107404380367445e-05)
(-1.000086242417662 4.259462968136959e-05 3.842474590252429e-05)
(-1.00007738119082 3.887124707979704e-05 3.523821665947841e-05)
(-1.000069591780511 3.47497814696673e-05 3.165013311930852e-05)
(-1.000062877265436 3.036043135895574e-05 2.777384484871309e-05)
(-1.000057217939638 2.580410721098049e-05 2.369986488126592e-05)
(-1.000052581317128 2.115446807127169e-05 1.949718795277644e-05)
(-1.000048930102058 1.646131134302993e-05 1.521577383730977e-05)
(-1.000046228243049 1.175468455955066e-05 1.088968686854154e-05)
(-1.00004444531774 7.049293974548229e-06 6.540554945276766e-06)
(-1.000043485948715 2.34896350329028e-06 2.18113236802787e-06)
(-1.000098615956585 3.842341840099024e-05 3.527105301858139e-05)
(-1.000089336502689 3.589556325511741e-05 3.318563282526799e-05)
(-1.000080935266585 3.286866616414309e-05 3.059781016317803e-05)
(-1.000073473207385 2.947415087994897e-05 2.761890146341861e-05)
(-1.000066978732 2.582181403632007e-05 2.434503015869763e-05)
(-1.000061457096573 2.199889085030546e-05 2.085588392225691e-05)
(-1.000056898699036 1.807104383200201e-05 1.721503833259905e-05)
(-1.000053285988635 1.408463459762194e-05 1.347137087302633e-05)
(-1.000050598945052 1.006977005130207e-05 9.661186702256997e-06)
(-1.000048819210329 6.043754716356156e-06 5.810762383515234e-06)
(-1.000047859318079 2.014717118845166e-06 1.939116106404856e-06)
(-1.000100544883241 3.117912849970333e-05 3.062916822020249e-05)
(-1.000091797169899 2.921708101788498e-05 2.897100691630684e-05)
(-1.000083802603195 2.682950938348575e-05 2.684488240041438e-05)
(-1.000076638632639 2.412111536509432e-05 2.434259161967177e-05)
(-1.000070352525466 2.11810161836468e-05 2.154594709837507e-05)
(-1.000064968709842 1.808147996062987e-05 1.852516099853925e-05)
(-1.000060495573381 1.487825150314751e-05 1.533853958113327e-05)
(-1.000056931375838 1.161200389909751e-05 1.203315961360717e-05)
(-1.00005426912293 8.310520453969127e-06 8.646244205222079e-06)
(-1.000052500370672 4.991310508906027e-06 5.207001790339189e-06)
(-1.000051544552763 1.664453508063017e-06 1.738756064646056e-06)
(-1.000101997583943 2.406252765041475e-05 2.704744701662119e-05)
(-1.000093686121805 2.260382812724326e-05 2.570361158683629e-05)
(-1.000086031232238 2.080425119577173e-05 2.392248375338404e-05)
(-1.000079121700585 1.874322387296336e-05 2.178086290251762e-05)
(-1.000073018367405 1.648938051901356e-05 1.934924724555149e-05)
(-1.000067759861254 1.409929347806474e-05 1.669006215117622e-05)
(-1.000063368175097 1.161743902111651e-05 1.385697315853061e-05)
(-1.000059853719684 9.077073820251754e-06 1.089507211970604e-05)
(-1.000057219638442 6.501734385377781e-06 7.841719470504912e-06)
(-1.000055465277275 3.907131946645577e-06 4.72785989909589e-06)
(-1.000054515765435 1.303276824543563e-06 1.579658828249255e-06)
(-1.000103034008236 1.707589455168785e-05 2.443997226051018e-05)
(-1.000095055446353 1.607044073947971e-05 2.331611906490104e-05)
(-1.000087663207449 1.481654125856657e-05 2.177959358940309e-05)
(-1.000080953503315 1.336975566856872e-05 1.989635259388722e-05)
(-1.000074996455861 1.177864904411402e-05 1.772853541285824e-05)
(-1.00006984065134 1.008374396882509e-05 1.533264678394062e-05)
(-1.000065517793039 8.317348328068455e-06 1.275865788320537e-05)
(-1.000062047080474 6.504047486588516e-06 1.004987642540033e-05)
(-1.000059439064804 4.661668083883058e-06 7.243430762480936e-06)
(-1.000057698828233 2.802553098590994e-06 4.371217837258904e-06)
(-1.000056755861044 9.350277330730772e-07 1.461182738212912e-06)
(-1.000103699610835 1.019784155653619e-05 2.273979264484209e-05)
(-1.000095945475099 9.609247493713749e-06 2.175520196753157e-05)
(-1.000088731917308 8.869704219760449e-06 2.03750494533262e-05)
(-1.0000821595928 8.012050974670445e-06 1.865827195238504e-05)
(-1.000076304379105 7.06521611415488e-06 1.666151126887428e-05)
(-1.00007122116197 6.053535513195272e-06 1.443730300463981e-05)
(-1.00006694787158 4.996591616790386e-06 1.203306460321698e-05)
(-1.000063509399928 3.909456232742424e-06 9.490782421433184e-06)
(-1.00006092113283 2.803225437109097e-06 6.84727569713126e-06)
(-1.000059191917625 1.685752348046147e-06 4.134912065228406e-06)
(-1.000058254189633 5.625047614366795e-07 1.382656100354159e-06)
(-1.000104024804601 2.260688500843685e-06 2.190125259356146e-05)
(-1.00009638358369 2.131525491666391e-06 2.098410054132603e-05)
(-1.000089260403968 1.968616106573395e-06 1.96801365313618e-05)
(-1.000082757991421 1.779201051821335e-06 1.804485230048355e-05)
(-1.000076954971322 1.569683692359601e-06 1.613216706638003e-05)
(-1.000071909275837 1.345472906644259e-06 1.399262776460765e-05)
(-1.000067661872319 1.110941113990861e-06 1.167235028250496e-05)
(-1.000064240446654 8.694724134006197e-07 9.212622421709941e-06)
(-1.000061662768689 6.235766301097687e-07 6.650063670146625e-06)
(-1.000059939548909 3.750485076947115e-07 4.017228332147972e-06)
(-1.000059004705465 1.251557746607585e-07 1.343540809968007e-06)
(-1.000085064674534 6.193213577709886e-05 6.96467055658776e-05)
(-1.000073055613015 5.694783381993143e-05 6.388986347172217e-05)
(-1.000062722163946 5.139078584548404e-05 5.752241210977506e-05)
(-1.000053980348143 4.548106308166489e-05 5.079541146056477e-05)
(-1.000046711875014 3.938489422195008e-05 4.389646052920403e-05)
(-1.000040785117343 3.321971529024488e-05 3.69559747904795e-05)
(-1.000036070260785 2.706120174178485e-05 3.005565965524244e-05)
(-1.000032449579755 2.095093218978943e-05 2.323761585154565e-05)
(-1.000029823981409 1.490387349900588e-05 1.651315000672503e-05)
(-1.00002811689966 8.915294806566256e-06 9.870848966083225e-06)
(-1.000027206947325 2.967004157486373e-06 3.283816011290591e-06)
(-1.000089297624426 5.699279296034223e-05 5.983357576535643e-05)
(-1.000078008162885 5.265924276365286e-05 5.521892897983418e-05)
(-1.000068158219567 4.773239813804513e-05 4.999572340373351e-05)
(-1.000059712819846 4.241359601131464e-05 4.43769195323614e-05)
(-1.000052600873179 3.685965179611734e-05 3.852746240550567e-05)
(-1.000046733098541 3.118562790538354e-05 3.25674510569644e-05)
(-1.000042015663296 2.546981450746162e-05 2.657761746774633e-05)
(-1.000038359992486 1.975973054313404e-05 2.060584257761608e-05)
(-1.000035689462504 1.407836629541147e-05 1.467388301314301e-05)
(-1.000033943732864 8.430231868750283e-06 8.783852617955825e-06)
(-1.000033009963042 2.807032304139035e-06 2.924276311628639e-06)
(-1.000092893685133 5.14664799924347e-05 5.125524569332488e-05)
(-1.000082316007837 4.776679719631366e-05 4.758092703020463e-05)
(-1.000072967810699 4.347749849875651e-05 4.331804268170037e-05)
(-1.000064853094486 3.877825727194314e-05 3.864486725879295e-05)
(-1.00005793984312 3.381294837589958e-05 3.370421897097198e-05)
(-1.000052174954632 2.869066771526974e-05 2.860450531229895e-05)
(-1.000047496158147 2.348899921467143e-05 2.342297942872289e-05)
(-1.000043841027967 1.825852356940324e-05 1.82102124512973e-05)
(-1.000041153480083 1.302786205065192e-05 1.299508603626084e-05)
(-1.000039388233652 7.808817867327388e-06 7.789874727914101e-06)
(-1.00003844116652 2.60139205381089e-06 2.595201039843686e-06)
(-1.000095894408312 4.557351169975895e-05 4.388719279522141e-05)
(-1.000085997144379 4.24706225348182e-05 4.097372029215357e-05)
(-1.000077146759492 3.880351118490394e-05 3.750286980724693e-05)
(-1.000069377369969 3.472870332510444e-05 3.362241115656405e-05)
(-1.000062688462735 3.037469847044781e-05 2.945459420651893e-05)
(-1.000057057047702 2.584176023101564e-05 2.509583138030538e-05)
(-1.000052447807442 2.120384078052593e-05 2.061837026004768e-05)
(-1.00004882112965 1.651182502593339e-05 1.607320875867275e-05)
(-1.000046139168206 1.179748368612675e-05 1.149369023188921e-05)
(-1.000044370202861 7.077724881843039e-06 6.899399739822551e-06)
(-1.000043418625728 2.358905389188092e-06 2.300136929583672e-06)
(-1.000098354004061 3.94821283633549e-05 3.767299973422083e-05)
(-1.000089086008352 3.692825816137266e-05 3.536497418423095e-05)
(-1.000080709729908 3.385399698374594e-05 3.253626790444455e-05)
(-1.0000732819072 3.039237527779905e-05 2.930864880142438e-05)
(-1.000066826786214 2.665504966348204e-05 2.578603026974928e-05)
(-1.000061345812322 2.273132533936461e-05 2.205334387786348e-05)
(-1.000056826093352 1.868909888613767e-05 1.817713080500123e-05)
(-1.000053247385061 1.457708620611339e-05 1.420730814263374e-05)
(-1.000050587580227 1.042782923427185e-05 1.01796727552912e-05)
(-1.000048826811949 6.261117709793771e-06 6.118821955987406e-06)
(-1.000047877460549 2.08759307136782e-06 2.041281583161647e-06)
(-1.000100330961436 3.331247814331034e-05 3.253946402532973e-05)
(-1.000091625275758 3.125649881252635e-05 3.070475413538457e-05)
(-1.000083682642375 2.873890838372957e-05 2.838706950303304e-05)
(-1.000076576317289 2.586968774398465e-05 2.568667524374976e-05)
(-1.000070349512674 2.27429517871693e-05 2.269175247833065e-05)
(-1.00006502299848 1.94355855676065e-05 1.947684080526936e-05)
(-1.000060602046575 1.600752761010682e-05 1.610272344201354e-05)
(-1.000057082399302 1.250322227452906e-05 1.261737339013521e-05)
(-1.000054455136703 8.953837778380387e-06 9.057628117628866e-06)
(-1.000052710439024 5.37994325372482e-06 5.451333897667347e-06)
(-1.000051767890344 1.79443300260567e-06 1.819770485840358e-06)
(-1.00010188201615 2.714294274341879e-05 2.840828080076282e-05)
(-1.000093659578112 2.55357077463271e-05 2.693566087664457e-05)
(-1.000086096540977 2.353726314452387e-05 2.50153996406461e-05)
(-1.000079277863796 2.123545250110045e-05 2.273055008171333e-05)
(-1.00007326088839 1.870669594894469e-05 2.015631465440893e-05)
(-1.000068081236499 1.601453727262392e-05 1.735829890846116e-05)
(-1.000063758456645 1.320953669914352e-05 1.439195784510453e-05)
(-1.000060301074893 1.033016242379942e-05 1.130297420441285e-05)
(-1.000057710859248 7.404372998398488e-06 8.128323258632309e-06)
(-1.000055986216724 4.451644033065716e-06 4.897817507565222e-06)
(-1.00005505295539 1.485258772679351e-06 1.635967061400075e-06)
(-1.00010305809284 2.101740553461797e-05 2.520462416671732e-05)
(-1.000095230955357 1.981539835682624e-05 2.400057795033237e-05)
(-1.00008798289762 1.830124559631939e-05 2.237942899144155e-05)
(-1.000081406884485 1.654175226195587e-05 2.041100065479038e-05)
(-1.000075570427902 1.459582340124218e-05 1.816027425891146e-05)
(-1.000070520157729 1.251314110328744e-05 1.568559267075633e-05)
(-1.000066286421424 1.033387820481564e-05 1.303784899136856e-05)
(-1.000062887563002 8.089207996775461e-06 1.0260485559946e-05)
(-1.000060333655093 5.802386420505969e-06 7.390125409531173e-06)
(-1.000058629553249 3.490219708080091e-06 4.457671505138704e-06)
(-1.000057706170578 1.164774166617413e-06 1.48973346824602e-06)
(-1.000103901759797 1.495257662753616e-05 2.286316324069619e-05)
(-1.00009637573805 1.412026151470507e-05 2.184832895981023e-05)
(-1.000089370187072 1.306100977638292e-05 2.044048123469854e-05)
(-1.000082983285991 1.182165185409383e-05 1.869986948525143e-05)
(-1.000077289499549 1.044390709847861e-05 1.668393764429749e-05)
(-1.000072343181695 8.963343073764481e-06 1.444554446194956e-05)
(-1.000068182389752 7.409066269170691e-06 1.20320099292594e-05)
(-1.000064832566677 5.803988820551944e-06 9.484873709798311e-06)
(-1.000062309847537 4.165520668564227e-06 6.840233454204629e-06)
(-1.000060623828978 2.506557027603879e-06 4.129531298683421e-06)
(-1.000059709316862 8.366578094081511e-07 1.380667308849044e-06)
(-1.000104445751089 8.94490707836765e-06 2.133208716181077e-05)
(-1.000097122522208 8.456150223379306e-06 2.043762258565693e-05)
(-1.000090281507281 7.829712877382997e-06 1.916671757426605e-05)
(-1.000084023987163 7.093317841100155e-06 1.757341570552621e-05)
(-1.000078428736683 6.27183461299185e-06 1.571020905743268e-05)
(-1.000073554998559 5.386618981862045e-06 1.362629308376447e-05)
(-1.000069445775677 4.455286825466608e-06 1.136654212573062e-05)
(-1.000066131108603 3.491835608993022e-06 8.971127408435584e-06)
(-1.000063631086886 2.507027095255485e-06 6.475675427977731e-06)
(-1.000061958416108 1.50895477379897e-06 3.911856488345876e-06)
(-1.000061050524215 5.037338293990269e-07 1.30829552345691e-06)
(-1.000104712182732 1.984619910633346e-06 2.057565197844602e-05)
(-1.000097490932251 1.877196310839995e-06 1.973965215101289e-05)
(-1.000090733019454 1.739013215207273e-06 1.853564214988868e-05)
(-1.000084541164256 1.576188195517695e-06 1.70146177153933e-05)
(-1.000078996198408 1.394228486439811e-06 1.522661915404644e-05)
(-1.000074159729482 1.197880378667282e-06 1.3219010279179e-05)
(-1.000070077173125 9.910745371043441e-07 1.103542523715609e-05)
(-1.000066780826407 7.769487471165416e-07 8.715322279769902e-06)
(-1.000064292728372 5.579293342884496e-07 6.294056804963672e-06)
(-1.000062627122244 3.358544233832452e-07 3.803374158973621e-06)
(-1.00006172275437 1.121252439228968e-07 1.272221119969515e-06)
(-1.000089987595576 5.205788127038431e-05 6.099761839564266e-05)
(-1.000078776800735 4.821453861159072e-05 5.627406711871844e-05)
(-1.000068968490184 4.380337026166372e-05 5.093094182799952e-05)
(-1.000060536552556 3.900575703497121e-05 4.51874505249375e-05)
(-1.000053418340639 3.396468294614164e-05 3.921346074759109e-05)
(-1.000047532083038 2.878674622974744e-05 3.313254661292243e-05)
(-1.000042790276925 2.354623018230308e-05 2.702749810931378e-05)
(-1.000039109434502 1.829018443000307e-05 2.094697269795149e-05)
(-1.000036416822202 1.304381788830296e-05 1.491242200368019e-05)
(-1.000034654887606 7.815800403543319e-06 8.924805276994671e-06)
(-1.000033711849732 2.603295479686134e-06 2.970886727523475e-06)
(-1.000093209210281 4.823297783773659e-05 5.274513124039737e-05)
(-1.000082676464928 4.48556368475296e-05 4.8919418900464e-05)
(-1.000073355506889 4.090673160606074e-05 4.449556703319716e-05)
(-1.00006525416625 3.655204803232332e-05 3.965920753079947e-05)
(-1.000058344185056 3.192561842224613e-05 3.45586120609503e-05)
(-1.000052575885285 2.71303638065268e-05 2.93057685523735e-05)
(-1.000047889942332 2.224083125201827e-05 2.397979841320684e-05)
(-1.0000442263416 1.730712189795808e-05 1.863166698914079e-05)
(-1.000041530871945 1.235936642229881e-05 1.328944969970522e-05)
(-1.000039759612554 7.412342741097856e-06 7.96369667925236e-06)
(-1.000038809045256 2.470022873193963e-06 2.652663138670002e-06)
(-1.000095975763345 4.383565436238966e-05 4.546886654305832e-05)
(-1.000086103046966 4.092259677523933e-05 4.23916555495456e-05)
(-1.000077272078999 3.745263705967609e-05 3.874797990172279e-05)
(-1.00006951766574 3.357382940061265e-05 3.469329270561025e-05)
(-1.000062840024865 2.940869762979564e-05 3.035544931491399e-05)
(-1.000057216870208 2.50538562319712e-05 2.583446652732872e-05)
(-1.000052613518834 2.058164625662333e-05 2.120439598496005e-05)
(-1.000048990899332 1.604303625213375e-05 1.651650829409741e-05)
(-1.000046311601359 1.147122127653775e-05 1.180318449511826e-05)
(-1.000044544231155 6.88553545796776e-06 7.082109376667947e-06)
(-1.000043593457309 2.295450065900598e-06 2.360529688630223e-06)
(-1.000098308120055 3.904609763383243e-05 3.91691624379267e-05)
(-1.000089059482231 3.657917021881995e-05 3.670486652475849e-05)
(-1.000080704274263 3.358654040019892e-05 3.371151795326387e-05)
(-1.00007329810568 3.019743568000189e-05 3.031822336367284e-05)
(-1.000066864158224 2.652110807899164e-05 2.663424379482198e-05)
(-1.000061402936659 2.264577215183004e-05 2.274793888594897e-05)
(-1.000056900762311 1.86393927752436e-05 1.872754901357589e-05)
(-1.00005333676658 1.455172255993014e-05 1.46232186732012e-05)
(-1.000050688372739 1.041710849797323e-05 1.046978386693045e-05)
(-1.000048935383764 6.25772017620578e-06 6.289978552607136e-06)
(-1.000047990302356 2.086973913392752e-06 2.097836598619755e-06)
(-1.00010023829145 3.400759726424066e-05 3.381734209774577e-05)
(-1.0000915626042 3.195891473328737e-05 3.184625114512781e-05)
(-1.000083653813537 2.942988247900412e-05 2.938540259830577e-05)
(-1.000076583098061 2.653062641710964e-05 2.654152703613755e-05)
(-1.000070391688393 2.33560595690464e-05 2.340751737791073e-05)
(-1.000065098585512 1.998443840112174e-05 2.006092124045935e-05)
(-1.000060707568426 1.647754815259345e-05 1.656398625644058e-05)
(-1.000057213183609 1.28820532827589e-05 1.296482871014485e-05)
(-1.000054605603742 9.231620226923885e-06 9.299358954906885e-06)
(-1.00005287436574 5.549511495173198e-06 5.593680195129325e-06)
(-1.000051939218586 1.851441115127561e-06 1.866759494088296e-06)
(-1.000101803352538 2.882781664848014e-05 2.936761743223032e-05)
(-1.000093637197016 2.716520304368865e-05 2.778604917417134e-05)
(-1.00008613256258 2.507919546235181e-05 2.575280512591759e-05)
(-1.00007937192859 2.266112006310542e-05 2.335613277246676e-05)
(-1.00007341034624 1.999103714900327e-05 2.067498801503783e-05)
(-1.000068281448075 1.713616570342448e-05 1.777732097842254e-05)
(-1.00006400314743 1.415068612353758e-05 1.471964827658386e-05)
(-1.000060582694506 1.107657444732172e-05 1.154761184182501e-05)
(-1.000058020914526 7.94515807261967e-06 8.297250086193103e-06)
(-1.000056315562876 4.779142966204602e-06 4.996753971322681e-06)
(-1.00005539285892 1.594927078449256e-06 1.66853330333318e-06)
(-1.000103040823659 2.358233007471191e-05 2.57667214302563e-05)
(-1.000095311225386 2.227346996908097e-05 2.448585533192153e-05)
(-1.000088157896518 2.060731028219457e-05 2.27878248438419e-05)
(-1.000081671256374 1.865702382652922e-05 2.074607667119488e-05)
(-1.000075916642752 1.64876994563912e-05 1.842811859265802e-05)
(-1.000070938936537 1.415483010702709e-05 1.58937500939627e-05)
(-1.000066767159682 1.170391725069383e-05 1.319434811822203e-05)
(-1.00006341871166 9.170941503544376e-06 1.037300492388729e-05)
(-1.000060903035224 6.583464077725101e-06 7.465316773379096e-06)
(-1.000059224596733 3.962160173787071e-06 4.500644000241393e-06)
(-1.00005831516805 1.322629454126061e-06 1.50369359924534e-06)
(-1.000103985370892 1.83193701774886e-05 2.296131163502781e-05)
(-1.000096612216809 1.733480578480774e-05 2.190522310217286e-05)
(-1.000089749008722 1.606594284675459e-05 2.046120307007271e-05)
(-1.000083491539415 1.456859039805634e-05 1.869130807941423e-05)
(-1.00007791253996 1.289299004425528e-05 1.66540501964706e-05)
(-1.000073065230281 1.108251208703483e-05 1.440265351533923e-05)
(-1.000068987036033 9.173207251134078e-06 1.198417799277896e-05)
(-1.000065703147679 7.19404116511529e-06 9.439377143743412e-06)
(-1.000063229695856 5.167641373649105e-06 6.803143129461986e-06)
(-1.0000615763975 3.111406944589452e-06 4.105398081006237e-06)
(-1.000060679557944 1.038859223687146e-06 1.372305601436442e-06)
(-1.000104666581766 1.306505265374893e-05 2.090340505857029e-05)
(-1.000097564652717 1.238023696892298e-05 2.000667031592487e-05)
(-1.000090924111905 1.148909014792056e-05 1.874478064693755e-05)
(-1.000084844209177 1.043082839968796e-05 1.717153735166677e-05)
(-1.000079402721064 9.241081514011029e-06 1.533882533714995e-05)
(-1.000074658719331 7.950897968012073e-06 1.329492643800946e-05)
(-1.000070655630604 6.586351931514883e-06 1.108355935862626e-05)
(-1.000067424277537 5.168640829667009e-06 8.743559735224315e-06)
(-1.000064985669444 3.714559174417009e-06 6.309092609978277e-06)
(-1.000063353378884 2.237244688341274e-06 3.810284508484467e-06)
(-1.000062467157795 7.471098616843354e-07 1.274167023310358e-06)
(-1.00010510755235 7.828633463491406e-06 1.955418764344492e-05)
(-1.000098188179315 7.425260798887947e-06 1.875929774204987e-05)
(-1.000091698417291 6.896835167635927e-06 1.761480780612373e-05)
(-1.000085739548049 6.266611641603116e-06 1.616916071783261e-05)
(-1.000080392470391 5.55585053496631e-06 1.446988881257681e-05)
(-1.000075719959863 4.783196538182934e-06 1.256198162443211e-05)
(-1.000071769293172 3.964414614254818e-06 1.048688705905754e-05)
(-1.000068574940436 3.112420823070116e-06 8.282088225759184e-06)
(-1.000066161091997 2.237542478966676e-06 5.981172878908426e-06)
(-1.000064543846812 1.347946739060996e-06 3.614301184616013e-06)
(-1.000063665274126 4.501854943828868e-07 1.208976063886553e-06)
(-1.000105324047605 1.738388017091841e-06 1.888653656226531e-05)
(-1.000098496451013 1.649593524888327e-06 1.814125420312816e-05)
(-1.000092082761062 1.532873551646165e-06 1.705425323563856e-05)
(-1.00008618519381 1.393364344348584e-06 1.567134242586447e-05)
(-1.000080886136167 1.235776378116712e-06 1.403789915005265e-05)
(-1.000076250155251 1.064253827287649e-06 1.21972690844016e-05)
(-1.000072326406319 8.823127861655748e-07 1.018975296467099e-05)
(-1.000069151149673 6.928450626552636e-07 8.052136313259125e-06)
(-1.000066750143528 4.981732951714835e-07 5.817690963822393e-06)
(-1.000065140735868 3.00144042175773e-07 3.51656330060016e-06)
(-1.000064266159943 1.002472579670897e-07 1.176459661511205e-06)
(-1.000093930573396 4.387132320160536e-05 5.229905046614732e-05)
(-1.000083481813746 4.091073944811913e-05 4.849176508924975e-05)
(-1.000074204731132 3.740617352865346e-05 4.409138874594419e-05)
(-1.000066116310691 3.350544986591146e-05 3.928377023217023e-05)
(-1.000059197311208 2.932976273650742e-05 3.42174662335931e-05)
(-1.000053406292932 2.497381756561001e-05 2.900461431353975e-05)
(-1.000048691033768 2.050788068663763e-05 2.372422211606963e-05)
(-1.00004499733715 1.59809633516471e-05 1.842682031563193e-05)
(-1.000042275511952 1.142457643488182e-05 1.313972814604457e-05)
(-1.000040484918339 6.856690562662273e-06 7.872457896562427e-06)
(-1.000039523292523 2.285698899318065e-06 2.62201134422836e-06)
(-1.000096374542699 4.090944282730835e-05 4.54875381854973e-05)
(-1.000086552354385 3.828103078129531e-05 4.237453292503187e-05)
(-1.000077749152771 3.511433042868702e-05 3.870011671134603e-05)
(-1.000070004666067 3.15446468412971e-05 3.462173085913847e-05)
(-1.000063324077835 2.768528281227325e-05 3.026855349949716e-05)
(-1.000057689726962 2.362690210244719e-05 2.574120868854406e-05)
(-1.000053070982772 1.943874445009525e-05 2.111365746913272e-05)
(-1.000049432139368 1.51710352677137e-05 1.643644882690371e-05)
(-1.000046738431754 1.085808459011519e-05 1.174070893103982e-05)
(-1.000044960404659 6.521725400554805e-06 7.042448446472696e-06)
(-1.000044003508207 2.174876799571009e-06 2.346940849231619e-06)
(-1.000098495054867 3.740565516130437e-05 3.943538193954268e-05)
(-1.000089276926144 3.511601080719004e-05 3.690791653466779e-05)
(-1.000080941115073 3.23083048088256e-05 3.38559840806006e-05)
(-1.000073545358307 2.910366652741914e-05 3.041165858764444e-05)
(-1.000067115055947 2.560556695740954e-05 2.668613654009522e-05)
(-1.000061652831295 2.189862984647292e-05 2.276869753279635e-05)
(-1.000057146900603 1.804916947933937e-05 1.872757157961708e-05)