/*--------------------------------*- C++ -*----------------------------------*\
  =========                 |
  \\      /  F ield         | OpenFOAM: The Open Source CFD Toolbox
   \\    /   O peration     | Website:  https://openfoam.org
    \\  /    A nd           | Version:  7
     \\/     M anipulation  |
\*---------------------------------------------------------------------------*/
FoamFile
{
    version     2.0;
    format      ascii;
    class       volScalarField;
    location    "0";
    object      mag(grad(Phi));
}
// * * * * * * * * * * * * * * * * * * * * * * * * * * * * * * * * * * * * * //

dimensions      [0 1 -1 0 0 0 0];

internalField   nonuniform List<scalar> 
12683
(
1.000012485563633
1.00002080081656
1.000019942220084
1.000029498099464
1.000027791174442
1.000026881412087
1.000038609803779
1.000035913786079
1.000034150092693
1.000033206277047
1.000048039492583
1.000044332771584
1.000041602684048
1.000039807292254
1.00003884330924
1.000057638910103
1.000052954169286
1.000049258991015
1.000046521049429
1.000044712621395
1.000043738961342
1.000061652529453
1.000057034865112
1.000053369931925
1.000050640993662
1.000048832062761
1.000047855938997
1.000070298188158
1.000064832006945
1.000060284655754
1.000056657594261
1.000053946244715
1.000052143869092
1.000051169547851
1.000078787874819
1.000072563061431
1.000067195998978
1.00006271107976
1.000059120447709
1.000056428421335
1.000054635087199
1.000053664361035
1.000087074247005
1.000080178050859
1.000074057199535
1.000068761385035
1.000064322686788
1.000060760170641
1.000058083965375
1.000056298642416
1.00005533139375
1.000095190731471
1.000087689009291
1.0000808666587
1.000074799392771
1.000069540739533
1.000065126526935
1.000061579218215
1.000058911808331
1.000057131089402
1.000056165906007
1.000079028475998
1.000066224281987
1.000055410217495
1.000046426924831
1.000039086834402
1.000033198513342
1.000028582992818
1.000025083868406
1.000022572975032
1.000020953185854
1.000020094085221
1.000084554451685
1.000072491031129
1.000062129342354
1.000053378712831
1.000046114735359
1.000040200526971
1.00003550197221
1.000031897975486
1.000029286921571
1.000027590467664
1.000026686584692
1.000089196527348
1.000077885289558
1.000068019267255
1.000059562377809
1.000052442501509
1.000046569460885
1.000041848679115
1.000038190988832
1.000035519315516
1.000033772995814
1.000032838968912
1.000093029089663
1.000082449361541
1.000073092252944
1.000064963851462
1.000058034167906
1.000052251932751
1.00004755643913
1.000043886529022
1.000041187092606
1.00003941354853
1.000038461868326
1.000096139586855
1.000086244062902
1.000077382567066
1.000069592885073
1.000062878111954
1.00005721855337
1.000052581730932
1.000048930353293
1.000046228371422
1.000044445363973
1.000043485953852
1.000098617316654
1.000089337697472
1.000080936274791
1.00007347402309
1.000066979361681
1.000061457556005
1.000056899010478
1.000053286178552
1.000050599042416
1.000048819245474
1.000047859321989
1.000100545838287
1.0000917980163
1.00008380332337
1.000076639219789
1.000070352981866
1.000064969044881
1.000060495801684
1.000056931515648
1.000054269194837
1.000052500396684
1.00005154455566
1.000101998239161
1.000093686707555
1.000086031734746
1.00007912211341
1.000073018690528
1.000067760099911
1.000063368338577
1.000059853820226
1.000057219690322
1.000055465296083
1.000054515767532
1.000103034452639
1.000095055847265
1.000087663554359
1.0000809537906
1.000074996682363
1.000069840819714
1.000065517909012
1.000062047152121
1.000059439101901
1.000057698841713
1.000056755862548
1.00010369992135
1.000095945757885
1.000088732164194
1.000082159798945
1.000076304542854
1.000071221284501
1.000066947956454
1.000063509452604
1.0000609211602
1.000059191927594
1.000058254190747
1.000104025046964
1.000096383806107
1.000089260599542
1.000082758155799
1.000076955102668
1.000071909374632
1.000067661941054
1.000064240489465
1.000061662790994
1.000059939557048
1.000059004706376
1.000085069017291
1.000073059275233
1.00006272513868
1.000053982672368
1.000046713613967
1.000040786351939
1.000036071078581
1.000032450069203
1.000029824228806
1.000028116988116
1.000027206957119
1.000089301038239
1.00007801107372
1.000068160608381
1.000059714703845
1.000052602294603
1.000046734115085
1.000042016340809
1.000038360399994
1.000035689669258
1.000033943806974
1.000033009971257
1.000092896322838
1.000082318280456
1.000072969693934
1.000064854592978
1.000057940982699
1.000052175775275
1.000047496708306
1.000043841360445
1.000041153649375
1.000039388294479
1.000038441173271
1.000095896409635
1.000085998885529
1.000077148215468
1.000069378538163
1.000062689357777
1.000057057696464
1.000052448244779
1.000048821395131
1.000046139303843
1.000044370251707
1.000043418631155
1.000098355492961
1.000089087315425
1.00008071083217
1.000073282798482
1.000066827473873
1.000061346313823
1.000056826433178
1.000053247592219
1.000050587686404
1.000048826850267
1.000047877464812
1.000100332045596
1.000091626235545
1.000083683458182
1.000076576981761
1.000070350028716
1.000065023377
1.000060602304329
1.000057082557057
1.000054455217804
1.000052710468353
1.000051767893609
1.000101882787956
1.000093660266848
1.000086097130812
1.000079278347569
1.000073261266471
1.000068081515368
1.000063758647443
1.00006030119212
1.000057710919692
1.000055986238626
1.000055052957831
1.000103058631287
1.00009523143965
1.000087983315471
1.000081407229576
1.000075570699299
1.000070520359023
1.000066286559802
1.000062887648353
1.000060333699232
1.000058629569274
1.000057706172366
1.00010390213291
1.000096376076383
1.000089370481247
1.000082983530689
1.000077289693248
1.000072343326192
1.000068182489577
1.000064832628498
1.000062309879605
1.000060623840646
1.000059709318165
1.000104446018595
1.000097122766786
1.000090281721595
1.000084024166718
1.000078428879745
1.000073555105897
1.000069445850196
1.000066131154937
1.000063631110994
1.000061958424897
1.000061050525197
1.000104712396358
1.000097491128821
1.000090733192735
1.000084541310234
1.000078996315295
1.000074159817564
1.000070077234502
1.000066780864685
1.000064292748334
1.000062627129533
1.000061722755186
1.000089990810653
1.000078779546224
1.000068970746376
1.000060538334126
1.000053419686215
1.000047533046213
1.000042790919353
1.00003910982114
1.000036417018455
1.000034654957973
1.000033711857533
1.000093211764277
1.000082678667315
1.000073357333363
1.000065255620607
1.000058345291763
1.000052576682686
1.000047890477149
1.000044226664924
1.000041531036619
1.000039759671733
1.000038809051824
1.000095977757645
1.000086104782673
1.00007727353094
1.000069518831072
1.000062840917971
1.000057217517729
1.000052613955426
1.000048991164406
1.000046311736805
1.000044544279936
1.000043593462729
1.000098309649315
1.000089060824753
1.000080705406433
1.000073299021152
1.000066864864553
1.000061403451777
1.000056901111366
1.000053336979365
1.000050688481799
1.000048935423124
1.000047990306734
1.000100239441399
1.000091563621885
1.000083654678275
1.000076583802171
1.000070392235063
1.000065098986395
1.000060707841347
1.000057213350617
1.000054605689588
1.000052874396781
1.000051939222043
1.000101804199201
1.000093637951952
1.000086133208611
1.000079372458065
1.000073410759758
1.000068281752895
1.000064003355872
1.000060582822518
1.000058020980507
1.000056315586779
1.000055392861584
1.000103041433621
1.000095311773166
1.00008815836845
1.000081671645585
1.000075916948449
1.000070939163006
1.000066767315207
1.000063418807507
1.000060903084757
1.00005922461471
1.000058315170056
1.000103985802258
1.000096612606938
1.00008974934708
1.000083491820196
1.000077912761736
1.000073065395398
1.00006898714991
1.000065703218103
1.000063229732347
1.000061576410767
1.000060679559425
1.000104666885558
1.000097564929458
1.000090924353566
1.000084844410992
1.000079402881389
1.000074658839307
1.000070655713711
1.000067424329116
1.000064985696244
1.000063353388645
1.000062467158886
1.000105107774154
1.000098188382817
1.000091698596199
1.000085739698393
1.000080392590504
1.000075720050198
1.000071769356013
1.000068574979573
1.000066161112387
1.000064543854252
1.000063665274959
1.000105324227448
1.00009849661691
1.000092082907647
1.000086185317565
1.000080886235454
1.000076250230198
1.00007232645862
1.000069151182329
1.000066750160574
1.000065140742096
1.00006426616064
1.000093932903119
1.000083483826148
1.000074206402644
1.000066117643518
1.000059198326683
1.000053407025373
1.00004869152545
1.000044997634606
1.000042275663532
1.000040484972832
1.000039523298573
1.000096376413868
1.000086553984763
1.000077750518023
1.000070005762855
1.000063324919112
1.000057690337347
1.000053071394576
1.000049432389514
1.000046738559619
1.000044960450722
1.000044003513325
1.000098496531888
1.000089278223693
1.000080942210011
1.000073546244189
1.000067115739799
1.000061653330246
1.000057147238831
1.000053578203258
1.000050924927554
1.000049168164295
1.000048220867306
1.000100301632626
1.000091650717993
1.000083762358276
1.000076708105354
1.000070529659239
1.000065246523977
1.000060862968285
1.000057373981479
1.000054770109639
1.000053041179198
1.000052107228272
1.000101809354326
1.000093677006626
1.000086204571798
1.000079473831955
1.000073539266764
1.000068434068198
1.000064175831733
1.00006077159474
1.000058222051773
1.000056524885924
1.000055606625231
1.000103042284961
1.000095369768735
1.000088271269705
1.000081835896857
1.00007612789107
1.000071191268348
1.000067054409685
1.000063734270116
1.000061240006101
1.000059575914675
1.000058674279661
1.00010402452629
1.00009674528857
1.000089970251063
1.00008379357879
1.000078286752952
1.000073502106311
1.000069476494608
1.000066234790711
1.000063792986817
1.000062160769356
1.000061275338393
1.000104779111006
1.000097820658657
1.00009131186121
1.000085350228699
1.00008001242441
1.000075356942351
1.000071427048461
1.000068253691108
1.000065858162625
1.000064254359895
1.000063383484421
1.00010532616144
1.000098611674618
1.000092306766251
1.000086511043021
1.000081304688727
1.000076750517418
1.000072896371893
1.000069777591525
1.000067419332722
1.000065838581195
1.00006497957445
1.000105681644418
1.000099131327676
1.000092964292089
1.000087281345088
1.000082164840019
1.000077680323041
1.000073878573053
1.000070797772732
1.00006846559708
1.000066901054539
1.000066050421359
1.000105856577697
1.00009938878728
1.000093291260145
1.000087665344905
1.000082594425872
1.000078145370001
1.000074370388655
1.000071309059922
1.000068990299949
1.000067434116857
1.000066587810323
1.00009703334178
1.0000872790315
1.000078506548417
1.000070764085833
1.00006406535483
1.000058400627455
1.00005374621503
1.000050072168464
1.000047348239862
1.000045548278136
1.000044578908238
1.000098888686743
1.000089707472491
1.000081386190199
1.000073987663038
1.000067542491808
1.000062058196907
1.000057527323729
1.00005393422665
1.000051260468943
1.000049488907233
1.000048533212442
1.000100514453649
1.000091882656613
1.000084001152281
1.000076944236363
1.000070756459488
1.000065460044441
1.000061061689401
1.000057558434576
1.000054942459442
1.000053204799596
1.000052265899171
1.000101911839436
1.000093794081814
1.00008633005144
1.000079602711706
1.000073667816324
1.000068559806079
1.000064297417323
1.000060888668692
1.000058335048735
1.000056634836007
1.000055714814295
1.000103089468896
1.000095440346074
1.000088361725492
1.000081942865821
1.0000762482709
1.000071322282611
1.000067193628247
1.000063879595426
1.000061389633505
1.000059728273839
1.000058828071635
1.000104060387671
1.000096826197655
1.000090092492966
1.000083952912457
1.000078478601877
1.000073721720337
1.000069719075294
1.000066495577192
1.000064067302881
1.000062444035789
1.000061563427219
1.000104839558052
1.000097959962517
1.000091523657792
1.000085627188195
1.000080346587842
1.000075740010446
1.000071850608141
1.000068709372859
1.000066337729292
1.000064749733604
1.000063887376887
1.000105441890325
1.000098851427552
1.0000926593733
1.000086964096663
1.000081845098995
1.000077364964983
1.000073571642443
1.000070500787277
1.000068177967396
1.000066620573133
1.000065774120987
1.000105880772521
1.000099510185623
1.000093504908879
1.000087964384179
1.00008297044621
1.000078588779295
1.000074870753046
1.000071855392854
1.000069571285594
1.00006803826563
1.000067204521078
1.000106167027172
1.000099944406406
1.000094065317257
1.000088629774774
1.000083721039284
1.000079406751415
1.000075740474603
1.000072763415447
1.000070506127885
1.000068990045927
1.000068165150512
1.000106308213979
1.000100159978891
1.000094344475947
1.000088961964
1.00008409637672
1.000079816299131
1.00007617636457
1.000073218849912
1.000070975278253
1.000069467873958
1.000068647517621
1.000099418267874
1.000090268437731
1.000081948950235
1.00007452991155
1.000068049315059
1.000062521603792
1.000057945412989
1.000054310167216
1.00005160141891
1.000049804947574
1.000048835232502
1.000100837127903
1.000092210288726
1.000084316038818
1.000077233393518
1.000071011701982
1.000065677691016
1.000061242030049
1.000057705071895
1.000055061605985
1.000053304582004
1.00005235484694
1.000102092218923
1.000093965271004
1.000086482493295
1.000079729737344
1.000073765680909
1.000068627503798
1.000064336354345
1.000060902260858
1.000058328293414
1.00005661388897
1.000055685971257
1.000103180850225
1.000095520698724
1.000088426389586
1.000081988777782
1.000076273976769
1.000071327833354
1.000067180398605
1.000063850062188
1.00006134713995
1.000059676797338
1.000058771615235
1.000104106173688
1.000096871106381
1.000090133983605
1.000083989128434
1.000078508403607
1.000073744658797
1.000069735324378
1.00006650584095
1.000064072710408
1.000062446032416
1.000061563518137
1.000104875107778
1.000098016212365
1.000091597820914
1.000085716507442
1.000080448442369
1.000075851983943
1.000071970522175
1.000068835290281
1.000066467933345
1.000064882688297
1.00006402178437
1.000105496534743
1.000098959068149
1.000092814942521
1.000087162075244
1.000082079756734
1.000077630551161
1.000073862520864
1.000070811516032
1.000068503327566
1.000066955553658
1.000066114264578
1.00010597982374
1.000099704477062
1.000093785293371
1.000088320905446
1.000083392776136
1.000079066563602
1.000075393856067
1.000072414041517
1.000070156120152
1.000068640310426
1.00006781579968
1.000106333682266
1.000100257714001
1.000094510389504
1.000089190664327
1.000084381434946
1.00008015051361
1.00007655200037
1.000073627837168
1.000071409361205
1.000069918710218
1.000069107432404
1.000106565308132
1.000100623543487
1.000094992264679
1.000089770539398
1.000085042124396
1.000080876185838
1.000077328432032
1.000074442457232
1.000072251120653
1.000070777815594
1.000069975674095
1.000106679801237
1.000100805514941
1.000095232694894
1.000090060433752
1.000085372889326
1.000081239879509
1.000077717896241
1.000074851344213
1.000072673832324
1.000071209374032
1.000070411896088
1.000101195793908
1.000092544122497
1.000084606508665
1.000077467946296
1.00007118372811
1.000065786061718
1.000061290374354
1.000057700930765
1.000055015561673
1.000053229420904
1.000052263522293
1.000102299517873
1.000094127794084
1.000086590571702
1.000079777837749
1.00007375230847
1.000068554839197
1.000064209733729
1.0000607295884
1.000058119450558
1.000056380177539
1.000055438539876
1.000103284604033
1.000095571012804
1.00008841953618
1.000081923805599
1.000076152568165
1.000071154012881
1.000066960160709
1.000063590973565
1.000061057955363
1.000059367110277
1.00005845067893
1.00010414641805
1.000096860314586
1.00009007181645
1.000083877021465
1.000078349411715
1.00007354322961
1.000069497040325
1.000066237161932
1.000063780738481
1.000062138309102
1.000061247190918
1.00010488490868
1.000097987991123
1.000091532431429
1.000085615827493
1.000080315249577
1.00007568980326
1.000071783466212
1.000068627909068
1.000066245084074
1.000064649429509
1.0000637828564
1.000105503174211
1.000098950686574
1.000092791707477
1.000087124596038
1.00008202904142
1.000077567948051
1.00007378965368
1.000070730220119
1.000068415592141
1.000066863472555
1.000066019812627
1.000106006163379
1.00009974806639
1.000093843990304
1.000088392539598
1.00008347523864
1.00007915786886
1.000075492176622
1.000072517718781
1.000070263654779
1.000068750336426
1.000067927147195
1.000106399569921
1.000100381637144
1.000094686459669
1.000089412574487
1.000084642733913
1.000080444817205
1.000076873135331
1.00007396991957
1.00007176681543
1.000070286237715
1.000069480354231
1.000106688940528
1.000100853758834
1.000095318105596
1.000090180309581
1.000085523898301
1.000081418198776
1.000077919343789
1.000075071492891
1.000072908100444
1.000071453091196
1.000070660741588
1.000106878993327
1.00010116686474
1.000095738897646
1.000090693205765
1.000086113762069
1.000082070796621
1.000078621605889
1.000075811595655
1.00007367539759
1.000072237923676
1.000071454865028
1.000106973130514
1.000101322887542
1.000095949160189
1.00009094993157
1.000086409375643
1.000082398154888
1.000078974131851
1.00007618332317
1.000074060940178
1.00007263238233
1.000071854050604
1.000102453078841
1.000094182516286
1.000086541872176
1.000079625787195
1.000073501271636
1.000068212898913
1.000063788016244
1.000060241582115
1.000057580378877
1.000055806455638
1.000054845852815
1.000103339732957
1.000095515398957
1.000088254376712
1.000081653736562
1.000075785252857
1.00007069962398
1.000066430835679
1.000063000303592
1.000060420545103
1.000058698223472
1.000057764643146
1.000104137494061
1.000096738933364
1.000089842735108
1.000083547514259
1.000077928836683
1.000073042565085
1.00006892844374
1.000065613588254
1.000063115638933
1.000061445414709
1.000060539210292
1.000104840858032
1.000097839566687
1.000091286014153
1.000085279604702
1.000079898797825
1.000075203687103
1.000071238886541
1.000068036422809
1.000065618404741
1.000063999306638
1.00006312004701
1.000105447984198
1.000098808440594
1.000092568747599
1.00008682850251
1.000081668273463
1.000077151520988
1.000073326873186
1.000070230485274
1.000067888270193
1.000066317840433
1.000065464294589
1.000105959682064
1.000099640406275
1.000093680033876
1.000088177929827
1.000083216120535
1.000078860666311
1.000075163416207
1.000072163906195
1.000069891203781
1.000068365545415
1.000067535704141
1.00010637845615
1.00010033304786
1.000094612594371
1.000089315970928
1.00008452615278
1.000080311142722
1.000076725296914
1.000073810836902
1.000071599366937
1.000070113250237
1.000069304380818
1.0001067076616
1.000100885784238
1.000095361873743
1.000090234212052
1.000085586348654
1.000081487681832
1.000077994445461
1.000075150912093
1.00007299064547
1.000071537663458
1.000070746392088
1.000106950800734
1.00010129909366
1.000095925238877
1.000090926952516
1.00008638810226
1.000082379035079
1.00007895731289
1.000076168684363
1.000074048137483
1.000072620900211
1.00007184331647
1.000107110969128
1.000101573884831
1.000096301312798
1.000091390533353
1.000086925571138
1.000082977357054
1.00007960429818
1.000076853095767
1.000074759664038
1.000073350021659
1.000072581799516
1.000107190449399
1.000101711024084
1.00009648946382
1.000091622813283
1.00008719515872
1.000083277708061
1.000079929278485
1.000077197037723
1.000075117355796
1.000073716641657
1.000072953172069
1.000103255316941
1.000095242028476
1.000087804099119
1.00008104188852
1.000075029617181
1.000069819633955
1.000065446894761
1.000061933261616
1.000059291345957
1.000057527716323
1.000056571816297
1.000104006211718
1.00009641609017
1.000089343007134
1.000082888215841
1.000077129065166
1.000072122446816
1.000067908529144
1.000064514420604
1.000061957499909
1.000060248231635
1.000059320980519
1.000104686190987
1.00009749984832
1.000090776929283
1.000084618968447
1.00007910572459
1.000074297890446
1.000070240143691
1.000066964217452
1.000064491743583
1.000062836690645
1.000061938083465
1.000105289419439
1.000098479902222
1.000092085538884
1.000086207640599
1.000080927719944
1.000076309552626
1.000072401616945
1.000069239624144
1.000066848911314
1.000065246525216
1.000064375805584
1.000105813129079
1.00009934686009
1.00009325324217
1.000087632987535
1.000082568798681
1.000078126873676
1.000074358810937
1.000071303659809
1.000068989907741
1.000067437241023
1.000066592898937
1.000106256859164
1.000100094606931
1.000094268515658
1.000088878461171
1.000084007881238
1.000079724815002
1.00007608335261
1.000073125271284
1.000070881667583
1.000069374432397
1.000068554232641
1.000106621711423
1.00010071954686
1.000095123179313
1.000089931546764
1.000085228482144
1.000081083374498
1.000077552243109
1.000074679027404
1.000072496919418
1.000071029595099
1.000070230633062
1.000106909672163
1.00010121988337
1.000095811677433
1.000090783077699
1.000086218081956
1.000082187028431
1.0000787473732
1.000075944703341
1.000073813827542
1.000072379809304
1.000071598590024
1.000107123030458
1.000101594980999
1.000096330421211
1.000091426589701
1.000086967515631
1.000083024168286
1.000079655014431
1.000076906824496
1.000074815580977
1.000073407361345
1.000072639897178
1.000107263909947
1.000101844836331
1.000096677230467
1.00009185775981
1.000087470429103
1.000083586588211
1.000080265344147
1.000077554229708
1.000075489990083
1.000074099364922
1.000073341287354
1.000107333918362
1.000101969673277
1.000096850898676
1.000092073961859
1.000087722841502
1.000083869065382
1.000080572050235
1.000077879701741
1.000075829140222
1.000074447432058
1.000073694113476
1.000103645693683
1.000095761929915
1.000088426718414
1.000081743067315
1.000075788621478
1.000070619474756
1.000066274282861
1.000062778288375
1.0000601469725
1.00005838913769
1.000057435943136
1.00010433134756
1.000096859065122
1.000089881050896
1.000083500489214
1.000077797376478
1.000072831588683
1.000068646301328
1.000065271410622
1.000062726687892
1.000061024475584
1.000060100678732
1.000104954539299
1.000097874926653
1.000091239545325
1.000085151269656
1.000079691848405
1.000074924302085
1.00007089570849
1.000067640061982
1.000065180958501
1.000063533921855
1.000062639349282
1.00010550933649
1.000098796248365
1.000092482226175
1.000086669445625
1.000081440865653
1.000076862036194
1.000072983315696
1.000069842219774
1.000067465673745
1.000065871994141
1.000065005736761
1.000105992582253
1.00009961343782
1.00009359349172
1.0000880339482
1.000083018517051
1.000078614714355
1.000074875583517
1.000071841591059
1.000069542490793
1.000067998992332
1.000067159409523
1.000106403253193
1.000100319962556
1.000094561564252
1.000089228141547
1.000084403793271
1.000080157509664
1.000076544470532
1.000073607550323
1.00007137884346
1.000069881056977
1.000069065808179
1.00010674181535
1.000100911696846
1.000095377865862
1.000090239256207
1.00008558009629
1.000081470439183
1.000077967111977
1.000075114894739
1.000072947760107
1.00007149003141
1.000070696132574
1.000107009625428
1.000101386287901
1.000096036386541
1.000091057788627
1.000086534690708
1.000082537878634
1.000079125401042
1.000076343487786
1.000074227559364
1.000072803194751
1.000072027095794
1.000107208409775
1.000101742584757
1.000096533096914
1.000091676925145
1.000087258159372
1.000083348062301
1.000080005538231
1.000077277856716
1.000075201488702
1.000073802930301
1.000073040609569
1.000107339838281
1.000101980158723
1.000096865443214
1.000092092035371
1.000087743913361
1.000083892621638
1.000080597604617
1.000077906800817
1.000075857363346
1.000074476387025
1.000073723458684
1.000107405202291
1.000102098932778
1.000097031950062
1.000092300267109
1.000087987793741
1.000084166204128
1.000080895203303
1.000078223056779
1.000076187253052
1.000074815182215
1.000074067012843
1.000017106999002
1.000014767640868
1.000013273190842
1.000028427477423
1.000024929509695
1.000022419741795
1.000040463610043
1.000035745774888
1.000032123916303
1.000052950308582
1.000047048413385
1.000042296656799
1.000065552292709
1.000058593601077
1.000052774296373
1.000077918320533
1.000070101204877
1.000063345711364
1.000089741157968
1.000081303685948
1.00007379037813
1.000067236231299
1.000100811031689
1.000091995078394
1.000083920640862
1.000076670800106
1.000102071032462
1.000093620807824
1.000085828683695
1.000102876935477
1.000094673639475
1.000103269694224
1.000107709560422
1.000109319520336
1.000110110866365
1.000110470384156
1.000111011514842
1.000111464231805
1.000111254927232
1.000111627979411
1.000111939014014
1.000112191084392
1.000111741103464
1.000112011094888
1.000112234754218
1.000112414322484
1.000112553935418
1.000111973258881
1.000112194349745
1.000112376403163
1.000112521329656
1.00011263270854
1.000112715162667
1.000111081483861
1.000111581617559
1.000111821275307
1.000093970456402
1.000098394927878
1.000101973067681
1.000104810616768
1.000107018922773
1.000108704428042
1.000109962257738
1.000110872800522
1.000111500262422
1.000111892369627
1.000112080608292
1.000098822584303
1.000102049358716
1.000104684945478
1.000106793989594
1.000108448567429
1.000109720243777
1.0001106748035
1.000111369073766
1.000111849228661
1.000112150042548
1.000112294670359
1.000102614507939
1.00010493401567
1.000106845002197
1.000108386139426
1.000109603425132
1.000110544396436
1.00011125402663
1.000111772028973
1.000112131226485
1.000112356659476
1.000112465153564
1.000105522214787
1.000107165744928
1.000108529464737
1.000109636105563
1.000110514763147
1.000111196793688
1.00011171273543
1.000112090148134
1.000112352193287
1.000112516763746
1.000112595988937
1.000108857547301
1.000109815101873
1.000110595456486
1.000111216998588
1.000111700413183
1.000112066431166
1.0001123341609
1.000112519921379
1.00011263647205
1.000112692535614
1.000110772887551
1.000111313329953
1.00011174394779
1.000112078532284
1.000112331287272
1.000112515568033
1.000112642953516
1.000112722599702
1.000112760815459
1.000111833221531
1.000112126230769
1.000112352701256
1.000112522597304
1.000112645456505
1.000112729660922
1.000112781906541
1.000112806840282
1.000112389598737
1.000112541350099
1.000112653650082
1.000112733601109
1.000112787516656
1.000112820484021
1.000112836055361
1.000112658888582
1.000112734959547
1.000112787820024
1.000112822554195
1.000112843285415
1.000112852906027
1.000112773769396
1.000112813540768
1.000112838989839
1.000112853789642
1.000112860523161
1.00012929407669
1.000120452939278
1.000129156001133
1.000120514538558
1.000129031472824
1.000110710961365
1.000130069114283
1.000113645988716
1.000130543835621
1.00011583706975
1.000130603709118
1.000117416030391
1.000130383899013
1.000118511375088
1.000130000752426
1.000119239528122
1.000129549891492
1.00011970034222
1.000129106709273
1.000119975467779
1.000128728058198
1.000120128412443
1.000128454296903
1.000120205414923
1.000128311160499
1.0001202365252
1.000130211001293
1.000113950201148
1.000130541949577
1.000115877975088
1.00013052225647
1.000117307334324
1.000130249870511
1.000118322652642
1.000129816752416
1.000119009369721
1.00012930405064
1.000119447216835
1.00012877994223
1.000119706249697
1.000128299227156
1.000119844911671
1.000127903913559
1.000119909409548
1.000127624222704
1.000119933820252
1.000127479617198
1.000119940496674
1.000130709288507
1.000116269503224
1.000130571918086
1.000117467867042
1.000130224478412
1.000118337978555
1.000129733511243
1.000118934301501
1.00012916282806
1.000119313916319
1.000128569885151
1.000119531539253
1.000128003867548
1.000119636323137
1.000127504984518
1.000119670038494
1.000127104516796
1.000119666216109
1.000126825242514
1.000119649882788
1.000126681964558
1.000119637598352
1.000130740151704
1.00011787193046
1.00013030517622
1.000118552670721
1.000129751252682
1.000119021109038
1.000129125436603
1.000119313220642
1.000128473421939
1.000119467754421
1.000127836946252
1.000119522692769
1.000127252264603
1.000119512810585
1.000126749431567
1.000119468142965
1.000126352122813
1.000119413128771
1.000126077760874
1.000119366206471
1.000125937758856
1.00011933967284
1.000130482457696
1.000118936561549
1.000129867559829
1.00011925714694
1.000129191576766
1.000119443229985
1.0001284895237
1.000119519541713
1.000127795522071
1.000119513163772
1.000127140990008
1.000119451064284
1.000126553493207
1.000119358297918
1.000126056124157
1.000119256790523
1.000125667256156
1.000119164585682
1.000125400526943
1.000119095422521
1.000125264930056
1.000119058526266
1.000130079220014
1.000119613144885
1.00012936219252
1.000119688356517
1.000128620047277
1.000119680442868
1.000127880363719
1.000119607394021
1.000127169909725
1.000119488969243
1.000126513388747
1.000119344997018
1.000125932596185
1.000119194070398
1.000125445919521
1.000119052613736
1.000125068095367
1.000118934260186
1.00012481013455
1.000118849466315
1.000124679336359
1.000118805291936
1.000129640353417
1.000120021348837
1.000128870021512
1.000119933688445
1.000128096381076
1.000119796149087
1.000127342428881
1.000119622739996
1.000126630296414
1.000119428699113
1.000125980371035
1.00011922931072
1.000125410676036
1.000119038959789
1.000124936477843
1.000118870421709
1.000124570070529
1.000118734361224
1.000124320682694
1.000118639000444
1.000124194455627
1.000118589913129
1.000129246879212
1.000120252405515
1.000128451782414
1.000120060923315
1.000127666140081
1.000119840348478
1.000126910168875
1.000119602396704
1.000126203141164
1.00011935959003
1.000125562743567
1.000119124409991
1.000125004608222
1.000118908593587
1.00012454200029
1.000118722584205
1.000124185632154
1.000118575125955
1.000123943569108
1.000118472981352
1.000123821192023
1.000118420746798
1.000128955226134
1.000120371654826
1.00012815038343
1.000120119263325
1.000127361952547
1.000119849812483
1.000126608564208
1.000119573774608
1.000125907842571
1.0001193021478
1.000125275902182
1.000119045806287
1.000124726970514
1.000118814945534
1.000124273127513
1.000118618634332
1.000123924142214
1.000118464474107
1.00012368738202
1.000118358352606
1.000123567769682
1.000118304277455
1.000128800857766
1.000120421041808
1.000127993076991
1.00012014060266
1.000127204752009
1.000119848602889
1.000126453792369
1.000119554970625
1.000125757068701
1.000119270021097
1.000125129972738
1.000119003898464
1.000124586082844
1.000118766090372
1.000124136928512
1.00011856503024
1.000123791838782
1.000118407787703
1.000123557854461
1.00011829984169