/*--------------------------------*- C++ -*----------------------------------*\
  =========                 |
  \\      /  F ield         | OpenFOAM: The Open Source CFD Toolbox
   \\    /   O peration     | Website:  https://openfoam.org
    \\  /    A nd           | Version:  7
     \\/     M anipulation  |
\*---------------------------------------------------------------------------*/
FoamFile
{
    version     2.0;
    format      ascii;
    class       volScalarField;
    location    "0";
    object      p;
}
// * * * * * * * * * * * * * * * * * * * * * * * * * * * * * * * * * * * * * //

dimensions      [0 2 -2 0 0 0 0];

internalField   nonuniform List<scalar> 
12683
(
1.293056578448308e-06
2.423118036913533e-06
9.31433250923197e-07
1.081005721574637e-06
1.247055326524094e-06
5.543825308451822e-07
-3.03672495330428e-06
-9.543416009012323e-07
8.135604052423906e-08
1.772230795752005e-07
-1.0093439163763e-05
-5.841767166796044e-06
-2.876604360045535e-06
-1.031295812535104e-06
-1.853902076936167e-07
-2.005706513553253e-05
-1.344812118237237e-05
-8.370226052694963e-06
-4.626220092143605e-06
-2.052770982370178e-06
-5.202157928762704e-07
-2.363755574969047e-05
-1.632803978733113e-05
-1.055986877990713e-05
-6.153490477885726e-06
-2.95064017584448e-06
-8.158744730398078e-07
-3.61100315342884e-05
-2.654195240475052e-05
-1.868221117240075e-05
-1.236246099217521e-05
-7.418820240499452e-06
-3.698595712966199e-06
-1.06304682395481e-06
-5.044524124856278e-05
-3.86862419649892e-05
-2.874007335947197e-05
-2.047461935400452e-05
-1.374241423493356e-05
-8.392206413530615e-06
-4.276365739747963e-06
-1.254489338101194e-06
-6.617937598761308e-05
-5.236831336498948e-05
-4.040512913423516e-05
-3.021362290014533e-05
-2.168135431183493e-05
-1.467507410707125e-05
-9.052349030207011e-06
-4.669343236395083e-06
-1.384943473681986e-06
-8.290114154892387e-05
-6.720334526234009e-05
-5.332692835281322e-05
-4.126466214282279e-05
-3.0952570858881e-05
-2.228806195225379e-05
-1.514507498173626e-05
-9.385701128521158e-06
-4.868126665911537e-06
-1.451004676043404e-06
-4.844968767953811e-05
-3.198041842545715e-05
-1.975021713052866e-05
-1.095516555666026e-05
-4.866009041487303e-06
-8.663501242874952e-07
1.534554813367383e-06
2.70424715094536e-06
2.897144139096429e-06
2.267159615654373e-06
8.799042257227065e-07
-5.927391404925795e-05
-4.214880401217908e-05
-2.886899960898943e-05
-1.881748345141463e-05
-1.140434210064407e-05
-6.108641286489226e-06
-2.498359073985071e-06
-2.357744259816531e-07
9.256490827155527e-07
1.148545155414361e-06
5.20356056692463e-07
-6.879960533105047e-05
-5.127777474822347e-05
-3.7203033892062e-05
-2.612212267736474e-05
-1.757320579973473e-05
-1.112778598933419e-05
-6.414521840570711e-06
-3.129977368588285e-06
-1.040812879903216e-06
1.909223034968609e-08
1.542200763032818e-07
-7.700852872578789e-05
-5.929640104717627e-05
-4.464752465795351e-05
-3.274764059320033e-05
-2.324850202224519e-05
-1.580737485583421e-05
-1.011223582605885e-05
-5.895781834447152e-06
-2.941398182504778e-06
-1.083729994650266e-06
-2.057803282501557e-07
-8.393495843803145e-05
-6.618477320589265e-05
-5.11430768433615e-05
-3.861016519829046e-05
-2.833525170527708e-05
-2.005215872375588e-05
-1.350415148728848e-05
-8.459571010570117e-06
-4.720279629653483e-06
-2.124792172570209e-06
-5.475663497849713e-07
-8.964648588627379e-05
-7.195955530637233e-05
-5.666603203464441e-05
-4.365792955477938e-05
-3.276542396250128e-05
-2.378818441157137e-05
-1.65187842968187e-05
-1.075879759635551e-05
-6.328702055073032e-06
-3.072806626001961e-06
-8.602612144247237e-07
-9.422734696170033e-05
-7.666018768065575e-05
-6.121808797143575e-05
-4.786425632754347e-05
-3.649384158677261e-05
-2.696097539618646e-05
-1.910026881770999e-05
-1.274264671840624e-05
-7.725975306790204e-06
-3.901175613399223e-06
-1.134525500885801e-06
-9.776494532811761e-05
-8.033682925453854e-05
-6.481643455239028e-05
-5.122016827980424e-05
-3.949316370719568e-05
-2.953253617685058e-05
-2.120690904893187e-05
-1.437162516949019e-05
-8.879626650856788e-06
-4.588299859604542e-06
-1.362704684841655e-06
-0.0001003395934990234
-8.304052737382792e-05
-6.748516265502074e-05
-5.372747558255098e-05
-4.174876330682989e-05
-3.147788757468093e-05
-2.280908746028158e-05
-1.561649040338506e-05
-9.764989427189243e-06
-5.11750473764016e-06
-1.538839863621007e-06
-0.0001020171312553018
-8.481569606593516e-05
-6.924832465860134e-05
-5.539288559307475e-05
-4.325409921775359e-05
-3.278170440637291e-05
-2.38870253058545e-05
-1.645690794494481e-05
-1.036450477318649e-05
-5.476749618983235e-06
-1.658596924061555e-06
-0.0001028439469189543
-8.569476216081572e-05
-7.012477377551174e-05
-5.622344219514035e-05
-4.400698286147974e-05
-3.343547650567614e-05
-2.442878349038558e-05
-1.688016179809421e-05
-1.066697808973527e-05
-5.658269782295891e-06
-1.719164968846044e-06
-6.149043922358323e-05
-4.412091797678812e-05
-3.057728352723612e-05
-2.025986849724575e-05
-1.259096805598804e-05
-7.057226380552223e-06
-3.230393162590917e-06
-7.735794837797518e-07
5.611021217226687e-07
9.392462385040202e-07
4.52495339758202e-07
-7.007510994334204e-05
-5.241093265169279e-05
-3.819464344416486e-05
-2.697595500214184e-05
-1.829487053416513e-05
-1.172375937997784e-05
-6.891373245933517e-06
-3.493783860524098e-06
-1.296727902216483e-06
-1.328420973754864e-07
1.038454542206728e-07
-7.766254940721029e-05
-5.987379958564904e-05
-4.516307735476086e-05
-3.320994013219359e-05
-2.366098817524167e-05
-1.616954434690122e-05
-1.042082682713841e-05
-6.145818571380736e-06
-3.127053219083088e-06
-1.199012332746359e-06
-2.450882260610309e-07
-8.423020213378636e-05
-6.644919187205054e-05
-5.139736094507195e-05
-3.886393937904036e-05
-2.858911889210976e-05
-2.030004267142366e-05
-1.373557608685837e-05
-8.661671545591766e-06
-4.87946914024806e-06
-2.228097097939306e-06
-5.837012727690864e-07
-8.979601967380335e-05
-7.211605645097123e-05
-5.684742265142667e-05
-4.386948543300446e-05
-3.300221444146352e-05
-2.403787274960444e-05
-1.676436243449995e-05
-1.09810056283397e-05
-6.508033013333184e-06
-3.191107970118703e-06
-9.020142518839562e-07
-9.440457355366038e-05
-7.688202884422913e-05
-6.149112709243614e-05
-4.818331630288062e-05
-3.684457248573111e-05
-2.732272453005022e-05
-1.94488254010686e-05
-1.305262276743092e-05
-7.972733091435563e-06
-4.062324031974668e-06
-1.191079454541331e-06
-9.811468196625272e-05
-8.077315417519675e-05
-6.532647293737717e-05
-5.178202711622241e-05
-4.007864233566156e-05
-3.010986748990508e-05
-2.174320936791018e-05
-1.483488179144289e-05
-9.240183957774845e-06
-4.819903505620079e-06
-1.443225382883116e-06
-0.0001009891373153988
-8.382473344875834e-05
-6.836409167582311e-05
-5.465641713573339e-05
-4.268114831396479e-05
-3.236779945596288e-05
-2.361319151946022e-05
-1.629533025803322e-05
-1.028370475223302e-05
-5.446098171386956e-06
-1.652162891103972e-06
-0.0001030866675021559
-8.607371321733797e-05
-7.062062564886843e-05
-5.680615962058845e-05
-4.463912551574967e-05
-3.407554811103443e-05
-2.503423768024448e-05
-1.74098494557845e-05
-1.108298045955776e-05
-5.927184287678955e-06
-1.81298974357783e-06
-0.0001044559903408443
-8.755275026538774e-05
-7.211330677425028e-05
-5.823521891626722e-05
-4.594632054928169e-05
-3.522005113390198e-05
-2.598985119043164e-05
-1.816159997619952e-05
-1.162351073304957e-05
-6.253232117969234e-06
-1.922134301354804e-06
-0.0001051316982821109
-8.828591347354935e-05
-7.28558758576921e-05
-5.894827191025814e-05
-4.660027216295294e-05
-3.57939380874502e-05
-2.647001021940291e-05
-1.854001274537649e-05
-1.189602796851295e-05
-6.417826108407006e-06
-1.977276384191096e-06
-7.261986619558865e-05
-5.470850417059402e-05
-4.020299593893588e-05
-2.867892741324089e-05
-1.969586265041023e-05
-1.283951424213109e-05
-7.746485226044681e-06
-4.116178623054915e-06
-1.714102470645737e-06
-3.699044740102593e-07
2.756604615916606e-08
-7.934082338371349e-05
-6.139035645872982e-05
-4.649792437712839e-05
-3.435515568591509e-05
-2.461795693357416e-05
-1.69461175782627e-05
-1.102872526196623e-05
-6.598424741794005e-06
-3.437618380743293e-06
-1.379227824264252e-06
-3.039329232022375e-07
-8.530727508054011e-05
-6.742450763132137e-05
-5.226614167285263e-05
-3.962420861448894e-05
-2.924104336074341e-05
-2.084525591182984e-05
-1.417654808736316e-05
-9.001155226745189e-06
-5.120031186049906e-06
-2.371726768973286e-06
-6.314844899796051e-07
-9.049470813037102e-05
-7.275900677176857e-05
-5.743727736184331e-05
-4.440612594397534e-05
-3.348328685674243e-05
-2.445940201520924e-05
-1.712134813026968e-05
-1.126793679729337e-05
-6.719298244995442e-06
-3.321306500572646e-06
-9.461932275237983e-07
-9.49097337076935e-05
-7.737214544135312e-05
-6.196824968989045e-05
-4.86440707281579e-05
-3.728135194132157e-05
-2.772501664835315e-05
-1.980447977757429e-05
-1.334894454712572e-05
-8.197359969691028e-06
-4.203898696379052e-06
-1.23976496891707e-06
-9.85801108708856e-05
-8.126474469436519e-05
-6.583790131908636e-05
-5.230109823058035e-05
-4.058891284591758e-05
-3.059233553489448e-05
-2.217785779677714e-05
-1.520195623433041e-05
-9.52117098759753e-06
-4.998238233420515e-06
-1.504799164112153e-06
-0.0001015456311997603
-8.445253430382113e-05
-6.904115373174607e-05
-5.535608605037949e-05
-4.337416221988817e-05
-3.302414479565409e-05
-2.420364166240823e-05
-1.679259063010758e-05
-1.066317080651316e-05
-5.68629362833563e-06
-1.734963370687339e-06
-0.0001038503542664367
-8.695923942612786e-05
-7.15833212003425e-05
-5.779941730156495e-05
-4.561681666935337e-05
-3.499393200522349e-05
-2.585328242105464e-05
-1.809397477083097e-05
-1.16013049022073e-05
-6.253407619498146e-06
-1.925066714585398e-06
-0.0001055363728819273
-8.881072459222845e-05
-7.347502628936155e-05
-5.962888064314621e-05
-4.730505247199843e-05
-3.648378374820062e-05
-2.710622632435006e-05
-1.90860564874898e-05
-1.231874107595495e-05
-6.688230033988959e-06
-2.071058827694536e-06
-0.0001066390850800902
-9.003034452227343e-05
-7.47279844743592e-05
-6.084611592219688e-05
-4.843271230289314e-05
-3.748234634274861e-05
-2.794854506389053e-05
-1.975477400523519e-05
-1.280343149893011e-05
-6.982532594746984e-06
-2.169984102593927e-06
-0.0001071838460755515
-9.063552367427648e-05
-7.535179536249367e-05
-6.145381727788939e-05
-4.899702895713666e-05
-3.798309635504577e-05
-2.837171549589197e-05
-2.009126622354268e-05
-1.304765615497398e-05
-7.130989100595791e-06
-2.219919538098278e-06
-8.191329442174724e-05
-6.373080894951594e-05
-4.855312914651754e-05
-3.610085161182539e-05
-2.605271125828344e-05
-1.808480458378045e-05
-1.189644100211133e-05
-7.225246556790845e-06
-3.854314239446225e-06
-1.613824156573344e-06
-3.789430397245735e-07
-8.711799310288934e-05
-6.906981566488874e-05
-5.37153106269101e-05
-4.08630149288594e-05
-3.026851194008224e-05
-2.167004161403785e-05
-1.481344564342652e-05
-9.468008399572482e-06
-5.43513917521025e-06
-2.551727370814459e-06
-6.896246108543214e-07
-9.17584983392366e-05
-7.390783601986681e-05
-5.845590678338817e-05
-4.528715242743017e-05
-3.422570501349483e-05
-2.506693545769483e-05
-1.760078564002854e-05
-1.162761473132527e-05
-6.967792065855216e-06
-3.466337821833468e-06
-9.937241860718387e-07
-9.581044305968462e-05
-7.820003649809077e-05
-6.271616769756203e-05
-4.930713598370245e-05
-3.785665060892324e-05
-2.82111910763861e-05
-2.020127889838389e-05
-1.365677655098912e-05
-8.41687326781761e-06
-4.335605031392582e-06
-1.283710771970232e-06
-9.927324047986976e-05
-8.192485077002512e-05
-6.645856647855354e-05
-5.287507767429458e-05
-4.11085576877338e-05
-3.104997660817432e-05
-2.256610854929973e-05
-1.55139176460959e-05
-9.750542607055546e-06
-5.139355311396459e-06
-1.552625918010615e-06
-0.0001021629718308073
-8.507839799876241e-05
-6.966283968643406e-05
-5.595887302523444e-05
-4.394227935697934e-05
-3.354165788904426e-05
-2.465517320574295e-05
-1.716383905265227e-05
-1.094123516967481e-05
-5.859840541106839e-06
-1.794291897075389e-06
-0.0001045057203665194
-8.766886319738147e-05
-7.232162611541699e-05
-5.853911509506024e-05
-4.633037692982351e-05
-3.565480009515398e-05
-2.643677412514453e-05
-1.857783546898811e-05
-1.19659699374316e-05
-6.482035124252639e-06
-2.003434158478881e-06
-0.0001063317500102064
-8.971130333004867e-05
-7.443617167254005e-05
-6.060580534956499e-05
-4.825480959257365e-05
-3.736671382141962e-05
-2.788683939956761e-05
-1.973339687757846e-05
-1.280633146527642e-05
-6.993721938471132e-06
-2.175730214721714e-06
-0.0001076707163327868
-9.122316750960047e-05
-7.601243935205503e-05
-6.215520648510276e-05
-4.970456777786585e-05
-3.866181627578796e-05
-2.898789952304841e-05
-2.061365298674695e-05
-1.344823011047591e-05
-7.385427039629366e-06
-2.307804210194847e-06
-0.0001085479509642076
-9.222068011950472e-05
-7.705784488967275e-05
-6.318709231931517e-05
-5.067350779176034e-05
-3.953004379404593e-05
-2.97280143069022e-05
-2.120671691348218e-05
-1.388155165145518e-05
-7.65026903693875e-06
-2.397189069952184e-06
-0.0001089817764783242
-9.271614058911962e-05
-7.757874551887723e-05
-6.37025679598403e-05
-5.115857965621994e-05
-3.996550390637069e-05
-3.009981926384484e-05
-2.150506567036959e-05
-1.409979752919563e-05
-7.783785158668874e-06
-2.442277194731189e-06
-8.949659149218589e-05
-7.123176686686539e-05
-5.560839530513697e-05
-4.246308875850861e-05
-3.157411016876722e-05
-2.269629000970866e-05
-1.558614090616626e-05
-1.00183561494827e-05
-5.795335513744054e-06
-2.751358562908186e-06
-7.527335155804548e-07
-9.349552837560046e-05
-7.547749681869858e-05
-5.982727428661734e-05
-4.644674091824066e-05
-3.517426086011134e-05
-2.581569694415e-05
-1.816776015792959e-05
-1.203420532318695e-05
-7.235919089721555e-06
-3.616065016695466e-06
-1.041313093577125e-06
-9.707579683811649e-05
-7.933859936608456e-05
-6.371152499454542e-05
-5.015272777948882e-05
-3.855401545884099e-05
-2.876786333209382e-05
-2.062865388344283e-05
-1.396814300067043e-05
-8.625709945594103e-06
-4.454160163256144e-06
-1.321831990702896e-06
-0.000100214656743121
-8.277648090277067e-05
-6.721167102331244e-05
-5.352570073608721e-05
-4.165673982415635e-05
-3.149877125641403e-05
-2.292055115730788e-05
-1.578004827074696e-05
-9.934537205157181e-06
-5.246784681831946e-06
-1.587836688753289e-06
-0.0001029074478421628
-8.57704459925811e-05
-7.029478762069782e-05
-5.652476609902075e-05
-4.443778646340394e-05
-3.396385439972218e-05
-2.500224699298811e-05
-1.743475918404336e-05
-1.113541378317961e-05
-5.976810133353449e-06
-1.833413822668654e-06
-0.0001051625504259946
-8.831368308207294e-05
-7.294160045357153e-05
-5.912163692818696e-05
-4.686354187399287e-05
-3.61277318837655e-05
-2.683979816022566e-05
-1.890251493676414e-05
-1.220503241779596e-05
-6.629226135235643e-06
-2.053338197963772e-06
-0.0001069965373314507
-9.04091379657644e-05
-7.514324371645886e-05
-6.129830203364794e-05
-4.890992977793498e-05
-3.796340281861931e-05
-2.84062326717274e-05
-2.015899614061928e-05
-1.312396286475971e-05
-7.191342655273759e-06
-2.243157893454539e-06
-0.000108429835519475
-9.206562607616462e-05
-7.689802303594244e-05
-6.30445233343103e-05
-5.056063012306775e-05
-3.945110385357077e-05
-2.968091961392504e-05
-2.11850614655117e-05
-1.387660981921104e-05
-7.652837892679948e-06
-2.399225541632408e-06
-0.0001094830739456373
-9.329441905403689e-05
-7.820844505248311e-05
-6.435542138284617e-05
-5.180525035823309e-05
-4.057702990008384e-05
-3.064875758708181e-05
-2.196629706305906e-05
-1.445100952333882e-05
-8.005695883387017e-06
-2.518689989041251e-06
-0.0001101741895435453
-9.410644412804094e-05
-7.907869488285628e-05
-6.522934839686799e-05
-5.263764536208227e-05
-4.133209587525254e-05
-3.129933132211587e-05
-2.249249533118801e-05
-1.483854745447641e-05
-8.244082706681281e-06
-2.599464536052715e-06
-0.0001105162971198196
-9.451016439455583e-05
-7.951267572495113e-05
-6.566619028827332e-05
-5.305453658951734e-05
-4.171088402025415e-05
-3.162616405951844e-05
-2.275716667165736e-05
-1.503367299673373e-05
-8.364207619125039e-06
-2.640187378665033e-06
-9.551790216714917e-05
-7.728830198525181e-05
-6.138696920158091e-05
-4.774022619985335e-05
-3.620629401421231e-05
-2.66055619554507e-05
-1.874398299380957e-05
-1.24297919477629e-05
-7.484322737415708e-06
-3.747889933606067e-06
-1.081636262480327e-06
-9.858253302812202e-05
-8.06690758202043e-05
-6.484473929554405e-05
-5.108354631002644e-05
-3.929015970519401e-05
-2.932637931081475e-05
-2.103238486461881e-05
-1.424253013536278e-05
-8.79607053562967e-06
-4.543459532255031e-06
-1.348877813224669e-06
-0.0001013369245852647
-8.375470223875934e-05
-6.803712992300416e-05
-5.419933768434585e-05
-4.218723016468984e-05
-3.190029176127664e-05
-2.321055135625105e-05
-1.597722883678664e-05
-1.005713179990631e-05
-5.311158329075449e-06
-1.607358087453562e-06
-0.0001037607531071973
-8.65120117985537e-05
-7.092207891554136e-05
-5.704064160921342e-05
-4.4849361325294e-05
-3.428119758523425e-05
-2.523708738197719e-05
-1.759931351925302e-05
-1.124139190266068e-05
-6.034606274516839e-06
-1.85146100292317e-06
-0.0001058474290831873
-8.892165483715999e-05
-7.347051807533482e-05
-5.957205049784001e-05
-4.723817507639191e-05
-3.643086119252192e-05
-2.707661742769281e-05
-1.907854259296181e-05
-1.232559309327685e-05
-6.699017266315794e-06
-2.076077152019708e-06
-0.0001076005320236314
-9.097522151211768e-05
-7.566425683825223e-05
-6.176832955583773e-05
-4.932432121150937e-05
-3.831867597515309e-05
-2.869989336087603e-05
-2.038930583474485e-05
-1.328968238754003e-05
-7.291475181662542e-06
-2.276710072374048e-06
-0.000109030286919064
-9.267221179888034e-05
-7.749357259905544e-05
-6.361265753295404e-05
-5.108632369726857e-05
-3.9921020642204e-05
-3.008353756811031e-05
-2.15106218923922e-05
-1.411693576818388e-05
-7.801071578633552e-06
-2.449535472822244e-06
-0.0001101503337710802
-9.401712323022018e-05
-7.895476673709133e-05
-6.509471824330418e-05
-5.250920466545367e-05
-4.122036017822306e-05
-3.120953177159026e-05
-2.242590953205661e-05
-1.479390443031822e-05
-8.218928690859606e-06
-2.591420514383522e-06
-0.0001109749474152897
-9.501684803859602e-05
-8.004789093549998e-05
-6.620884167899191e-05
-5.358306525601721e-05
-4.220424239512669e-05
-3.206457082680529e-05
-2.312262047061525e-05
-1.531024198808253e-05
-8.538141092634643e-06
-2.69991387902409e-06
-0.0001115167904922297
-9.567850401802136e-05
-8.077479305061584e-05
-6.695235239920372e-05
-5.430177539482553e-05
-4.286432621659778e-05
-3.263939524963545e-05
-2.35918221261059e-05
-1.565847493277049e-05
-8.753672895824548e-06
-2.773218819541058e-06
-0.0001117852315688117
-9.600777125303024e-05
-8.113758328557805e-05
-6.732424150469194e-05
-5.466189200259474e-05
-4.319555420699802e-05
-3.292820064952675e-05
-2.382780946571746e-05
-1.583377403203465e-05
-8.86224555070764e-06
-2.810160986777262e-06
-0.0001001258953101771
-8.199070862059178e-05
-6.592836900453175e-05
-5.193186336693876e-05
-3.992083455926534e-05
-2.976756135936484e-05
-2.131831705110358e-05
-1.440966249332439e-05
-8.879834232368756e-06
-4.575694414173455e-06
-1.355797799388625e-06
-0.0001024910619089562
-8.471231110738108e-05
-6.879643617378998e-05
-5.477108993545936e-05
-4.259178933244158e-05
-3.216443153375427e-05
-2.336438863974049e-05
-1.605153834223458e-05
-1.008114900881245e-05
-5.310858902793678e-06
-1.604125639948345e-06
-0.0001046242255487954
-8.720507824507203e-05
-7.145193267579175e-05
-5.742230297112373e-05
-4.510355802592133e-05
-3.443213545097182e-05
-2.531037131472607e-05
-1.762017315037347e-05
-1.123326883736645e-05
-6.018083610972238e-06
-1.843465497850619e-06
-0.0001065076608493249
-8.944037047065913e-05
-7.38585984061197e-05
-5.984494859893334e-05
-4.741441399814434e-05
-3.653053605470769e-05
-2.712005081789737e-05
-1.908517695487673e-05
-1.23131438109702e-05
-6.682863210185259e-06
-2.068834587310823e-06
-0.0001081341623852363
-9.140035142757324e-05
-7.599052504114454e-05
-6.200785127763803e-05
-4.949071698798411e-05
-3.842614590698048e-05
-2.876241398511645e-05
-2.041998987292725e-05
-1.33003080245785e-05
-7.292165369388818e-06
-2.27572530567297e-06
-0.0001095045011005959
-9.307590778307354e-05
-7.78306058633326e-05
-6.388818664943172e-05
-5.130634835760573e-05
-4.009193089661778e-05
-3.021171125731422e-05
-2.160209150043268e-05
-1.41771311112909e-05
-7.834632889593158e-06
-2.460183477513535e-06
-0.0001106248391829039
-9.446440357779532e-05
-7.936872902859584e-05
-6.54701439876501e-05
-5.284181770160512e-05
-4.150679703733223e-05
-3.144723666394885e-05
-2.261297775716617e-05
-1.492889707576007e-05
-8.300679119422294e-06
-2.618850335707663e-06
-0.0001115043023734293
-9.556747640028827e-05
-8.059991268851835e-05
-6.674345528319021e-05
-5.408318896364858e-05
-4.265487683866585e-05
-3.245291115406982e-05
-2.343796398099317e-05
-1.554374694332726e-05
-8.682495787355436e-06
-2.748974046137487e-06
-0.0001121528458009187
-9.638903236940729e-05
-8.152254481792536e-05
-6.770194677532036e-05
-5.502096539126285e-05
-4.352473239869739e-05
-3.321676189226648e-05
-2.406588262602915e-05
-1.601253119943574e-05
-8.973999338631041e-06
-2.84839916932595e-06
-0.0001125794968209132
-9.69335497392619e-05
-8.213685204610125e-05
-6.834224022678895e-05
-5.564905395895343e-05
-4.410858211899272e-05
-3.373038635746706e-05
-2.448874433856806e-05
-1.632862041118863e-05
-9.170744360592965e-06
-2.915543500220092e-06
-0.0001127910193936725
-9.720476195569132e-05
-8.244368605449038e-05
-6.866270094351395e-05
-5.596390608236961e-05
-4.440164065891132e-05
-3.398847860274522e-05
-2.470142437166321e-05
-1.648771896502221e-05
-9.269831305350247e-06
-2.94937141047775e-06
-0.0001034540662120978
-8.542728024313602e-05
-6.92798451108862e-05
-5.505154804452243e-05
-4.27063518208991e-05
-3.215488347359866e-05
-2.327391380110305e-05
-1.592199386729889e-05
-9.950999928547726e-06
-5.213701775605353e-06
-1.567652475456774e-06
-0.0001053232866424785
-8.767471707290286e-05
-7.171807329698919e-05
-5.751868689247656e-05
-4.506875056435991e-05
-3.430667606493358e-05
-2.513433256134041e-05
-1.743125685246516e-05
-1.106544970629143e-05
-5.90072252038968e-06
-1.800759948679003e-06
-0.0001070142210051846
-8.973984198216544e-05
-7.398162430664414e-05
-5.982688662917248e-05
-4.729289996183806e-05
-3.634330575844703e-05
-2.690317824817154e-05
-1.887178965602165e-05
-1.213259399660721e-05
-6.560272803569898e-06
-2.024895880304312e-06
-0.0001085114569015187
-9.159753506360052e-05
-7.603854269417267e-05
-6.194025139571091e-05
-4.934169905100797e-05
-3.822891958707277e-05
-2.854795460985474e-05
-2.021620657315482e-05
-1.313158469301647e-05
-7.179194625349516e-06
-2.235532596940854e-06
-0.0001098078446957469
-9.323135671045026e-05
-7.786535663087613e-05
-6.383071663075515e-05
-5.118492612268547e-05
-3.993342918283024e-05
-3.004076153289446e-05
-2.144057232623968e-05
-1.404394555404969e-05
-7.745705111319855e-06
-2.428591069108395e-06
-0.000110902631455858
-9.46320062817961e-05
-7.944591687752862e-05
-6.547727042729628e-05
-5.279880390921766e-05
-4.143235435563508e-05
-3.135833725527185e-05
-2.252455911782066e-05
-1.485376391583672e-05
-8.249551702759562e-06
-2.600501178104487e-06
-0.0001117995106973086
-9.579561204058557e-05
-8.07700065687301e-05
-6.686491195796294e-05
-5.416529339166654e-05
-4.270640827172112e-05
-3.248187163415691e-05
-2.345141574743734e-05
-1.554774300263458e-05
-8.682081291492239e-06
-2.7482327680635e-06
-0.000112504747889325
-9.672201741226241e-05
-8.183187931128295e-05
-6.798348754254798e-05
-5.527123438200444e-05
-4.3740917894313e-05
-3.339666025895385e-05
-2.42077972172579e-05
-1.611514536848993e-05
-9.0362395343188e-06
-2.869302459295359e-06
-0.0001130254996519243
-9.741319487822224e-05
-8.26288591387929e-05
-6.882653089485768e-05
-5.610744554409869e-05
-4.452517432402871e-05
-3.409167436401624e-05
-2.478351032792682e-05
-1.654766493121578e-05
-9.306521667472834e-06
-2.961763093871909e-06
-0.0001133684063219075
-9.78718848355244e-05
-8.316010830072082e-05
-6.9390213614951e-05
-5.666788300966075e-05
-4.505180024562091e-05
-3.455911870425177e-05
-2.517123099931114e-05
-1.683926676653898e-05
-9.488897927187585e-06
-3.024183435190933e-06
-0.0001135385073649512
-9.810052688577771e-05
-8.342564159616661e-05
-6.967248895063589e-05
-5.694893862067887e-05
-4.531620842229416e-05
-3.479404064264346e-05
-2.536624367668678e-05
-1.6986031024943e-05
-9.580735515498053e-06
-3.055625460918072e-06
-0.0001056100599794083
-8.76730064560085e-05
-7.148571201015588e-05
-5.711757196209772e-05
-4.456117546105064e-05
-3.375235816090938e-05
-2.458827528398777e-05
-1.694244554400353e-05
-1.067627191309159e-05
-5.646932718032047e-06
-1.711772582097929e-06
-0.0001071624765259982
-8.961430520665548e-05
-7.364372550499095e-05
-5.933992559811983e-05
-4.671878634687219e-05
-3.574006688345713e-05
-2.632329847890777e-05
-1.836133432826796e-05
-1.17309889228056e-05
-6.300559225456006e-06
-1.934256931562235e-06
-0.0001085700699801081
-9.140274119465924e-05
-7.565144353034723e-05
-6.142238245071581e-05
-4.875214671282524e-05
-3.762222418660787e-05
-2.797281371410314e-05
-1.971490394224742e-05
-1.274000763999687e-05
-6.927265639451869e-06
-2.147866134005815e-06
-0.0001098191323802598
-9.301560065169577e-05
-7.747976629674414e-05
-6.333209331740163e-05
-5.062716053537829e-05
-3.936575173241866e-05
-2.950673031968303e-05
-2.09777124061178e-05
-1.368390488211688e-05
-7.514765994473024e-06
-2.348367047931024e-06
-0.0001109027872382023
-9.443750027339457e-05
-7.910688475525951e-05
-6.504304680632202e-05
-5.231583016053636e-05
-4.094275797581065e-05
-3.089915413558729e-05
-2.212751350013633e-05
-1.454548410650361e-05
-8.052080646708236e-06
-2.531956039960807e-06
-0.0001118195343311283
-9.565917672809489e-05
-8.05173621405526e-05
-6.653544901909666e-05
-5.379590769530313e-05
-4.233041225423278e-05
-3.21284223035783e-05
-2.31453854749158e-05
-1.530993294296504e-05
-8.529664085092343e-06
-2.695308679864696e-06
-0.0001125716902216576
-9.667610897138172e-05
-8.17010047855133e-05
-6.77948697484046e-05
-5.505030975091113e-05
-4.351059572726518e-05
-3.317694131334595e-05
-2.401569862466247e-05
-1.596486133601971e-05
-8.939459096408202e-06
-2.83560444736725e-06
-0.0001131638594061604
-9.748711183699418e-05
-8.265165415531429e-05
-6.881127333308631e-05
-5.606639540592938e-05
-4.446940892663803e-05
-3.403088831782308e-05
-2.472596386173533e-05
-1.650024720451307e-05
-9.27489177945489e-06
-2.950530939496579e-06
-0.0001136015404564099
-9.809301512548508e-05
-8.336601517510115e-05
-6.957804252157826e-05
-5.683520361555959e-05
-4.519661679926828e-05
-3.46798399333107e-05
-2.526660999001992e-05
-1.690832193267664e-05
-9.530825855802558e-06
-3.038273530394684e-06
-0.0001138899427904732
-9.849551662475055e-05
-8.38426146778712e-05
-7.009108791221481e-05
-5.735073587398529e-05
-4.568510630227277e-05
-3.511639044265675e-05
-2.563073744694509e-05
-1.718342924158174e-05
-9.7034960521861e-06
-3.097497003275708e-06
-0.0001140330647760858
-9.869627318732455e-05
-8.408096186892683e-05
-7.034811693807038e-05
-5.760935515726185e-05
-4.593042071354024e-05
-3.533581394559422e-05
-2.581389173962152e-05
-1.732188854792766e-05
-9.790439275867677e-06
-3.127325404578306e-06
-0.0001066688633229244
-8.878182033086282e-05
-7.257962699547417e-05
-5.814599263560297e-05
-4.548752659115285e-05
-3.455254479388351e-05
-2.52483963857242e-05
-1.745616627165523e-05
-1.104214546852129e-05
-5.865856325260604e-06
-1.784679210050366e-06
-0.000108067054985011
-9.057310537024411e-05
-7.459951720067333e-05
-6.024701887988251e-05
-4.754309419184625e-05
-3.645806476534183e-05
-2.692028168223475e-05
-1.882931206159732e-05
-1.206647085412387e-05
-6.502407899865718e-06
-2.001712800023334e-06
-0.000109336455103919
-9.222577629950358e-05
-7.648102672205346e-05
-6.221755334621738e-05
-4.948140953802765e-05
-3.82629103681311e-05
-2.850979904704414e-05
-2.013895897117766e-05
-1.304600168858431e-05
-7.112383527255804e-06
-2.20994434118738e-06
-0.0001104642541488408
-9.371834028643998e-05
-7.819648072865652e-05
-6.402625448685948e-05
-5.126985737655434e-05
-3.993536784853949e-05
-2.998804000365615e-05
-2.136062010688449e-05
-1.396201500624005e-05
-7.683925768527512e-06
-2.405285414265009e-06
-0.0001114437806042407
-9.503597954173977e-05
-7.972491421646945e-05
-6.564813294266857e-05
-5.288153735644323e-05
-4.144862486510063e-05
-3.133009378052864e-05
-2.247287647463256e-05
-1.479794068757176e-05
-8.206448014189982e-06
-2.584067100870863e-06
-0.000112273239141612
-9.616949782920636e-05
-8.105126980696063e-05
-6.706400813192916e-05
-5.429495829160155e-05
-4.278066091706615e-05
-3.251508014056893e-05
-2.345749341257493e-05
-1.553950356971118e-05
-8.670749755172148e-06
-2.743084804782292e-06
-0.0001129543370051222
-9.711410168398256e-05
-8.216539409373622e-05
-6.82597454703041e-05
-5.54935122057553e-05
-4.391393118916718e-05
-3.352600056016529e-05
-2.429938845233184e-05
-1.617475553722512e-05
-9.069064015440026e-06
-2.879620066777152e-06
-0.0001134909208838185
-9.786814183844082e-05
-8.306095231989636e-05
-6.922538171308431e-05
-5.646481932730057e-05
-4.483491699045116e-05
-3.434946316533044e-05
-2.498648977098543e-05
-1.669402280201293e-05
-9.395050633561065e-06
-2.99144362951391e-06
-0.000113887721980742
-9.843192071494177e-05
-8.373436736501273e-05
-6.995423799036995e-05
-5.720003244023264e-05
-4.553361714521723e-05
-3.497534053621225e-05
-2.550952924504402e-05
-1.708979825444908e-05
-9.643752481434246e-06
-3.076805274901391e-06
-0.0001141492820337862
-9.880664967206176e-05
-8.418387095750877e-05
-7.044210660278074e-05
-5.769317997486435e-05
-4.600304958933132e-05
-3.539641745054009e-05
-2.586181410232561e-05
-1.735660977814216e-05
-9.811532830115387e-06
-3.134416433857202e-06
-0.00011427911126719
-9.899361822129128e-05
-8.440873544705649e-05
-7.068658105011747e-05
-5.794061403571191e-05
-4.623882265587402e-05
-3.560807893666836e-05
-2.603901700432388e-05
-1.749089314295379e-05
-9.896011048382695e-06
-3.163431300354834e-06
6.206325123007303e-06
5.213040743241947e-06
3.564336697779246e-06
2.035590056061355e-06
3.082795970443529e-06
3.161379593773383e-06
-5.829791100294024e-06
-2.253703894950713e-06
-3.180373373513282e-08
-1.756002891044052e-05