/*--------------------------------*- C++ -*----------------------------------*\
  =========                 |
  \\      /  F ield         | OpenFOAM: The Open Source CFD Toolbox
   \\    /   O peration     | Website:  https://openfoam.org
    \\  /    A nd           | Version:  7
     \\/     M anipulation  |
\*---------------------------------------------------------------------------*/
FoamFile
{
    version     2.0;
    format      ascii;
    class       volScalarField;
    location    "0";
    object      Phi;
}
// * * * * * * * * * * * * * * * * * * * * * * * * * * * * * * * * * * * * * //

dimensions      [0 2 -1 0 0 0 0];

internalField   nonuniform List<scalar> 
12683
(
0.6666749105883282
2.000040146067033
0.6666798742551283
3.333425271207656
2.000054040674718
0.6666844949781574
4.666829137577309
3.333446441305842
2.000066701337994
0.6666887079129973
6.000250169625867
4.666855588774298
3.333465283030603
2.00007798202207
0.6666924637302167
7.333686375962309
6.000279649980074
4.666878499159862
3.333481626600727
2.000087776666391
0.6666957263868839
7.333716479705933
6.000304342156895
4.66689772077775
3.333495356106313
2.000096011684222
0.6666984706861092
8.667163701350125
7.333740586998027
6.00032415006747
4.666913161751458
3.333506396790601
2.000102638590674
0.6667006798637091
10.00061883298041
8.667184880042431
7.33375866550242
6.000339024552991
4.66692476963836
3.333514703573899
2.000107627292457
0.6667023433816456
11.33407944923349
10.00063486320269
8.667198975039851
7.333770711152438
6.000348945039249
4.666932517569384
3.333520251404714
2.00011096040819
0.6667034550539802
12.66754336562362
11.33408832456966
10.00064286216213
8.66720601395207
7.333776730824615
6.000353905595994
4.666936393615804
3.333523027802884
2.00011262885715
0.6667040115876556
14.00052498015379
12.66709550506348
11.33368172816233
10.00028108805235
8.666891264269402
7.333510195683361
6.000136072355139
4.666767310412431
3.333402516985026
2.000040449957018
0.666679975445305
14.00061916756206
12.6671817212733
11.33375920153354
10.00034938451912
8.666950198001532
7.333559749986192
6.000176333307747
4.666798413630059
3.333424606711023
2.000053649181904
0.6666843657055713
14.00070439688862
12.66726016382429
11.33383004389551
10.00041211882633
8.66700454925236
7.333605609283502
6.000213700069583
4.666827347946894
3.333445191853118
2.000065963656975
0.6666884640619356
14.00078010503142
12.66733019210775
11.3338935793042
10.00046861765875
8.667053679593101
7.333647196171442
6.000247676570998
4.666853713762986
3.33346398002401
2.000077215289177
0.666692210719282
14.00084603268544
12.66739144757655
11.33394938623834
10.00051843106769
8.66709714149032
7.333684091693192
6.000277893651278
4.666877208180848
3.33348074671246
2.000087266199397
0.6666955591984933
14.00090213330359
12.6674437777869
11.33399723596308
10.00056128374267
8.667134640743388
7.333716007124004
6.000304088485851
4.666897610593241
3.333495325849502
2.000096013406435
0.6666984746219574
14.00094849513451
12.66748716907856
11.33403703601478
10.00059702880337
8.667165999661073
7.333742755402129
6.000326083101497
4.666914767206449
3.33350759943259
2.000103382878637
0.6667009317774698
14.00098527764625
12.66752169000294
11.33406878132144
10.00062560671698
8.667191123453211
7.333764224403899
6.000343763823197
4.666928575936969
3.333517487237376
2.000109323567796
0.6667029131646385
14.00101266187491
12.66754744595357
11.33409251401797
10.0006470107337
8.667209971342457
7.333780353518074
6.000357062938886
4.666938972736633
3.333524937390958
2.000113801897158
0.6667044071823353
14.00103081336506
12.66756454451158
11.33410829209813
10.00066125939876
8.667222533183995
7.333791114387816
6.000365943418742
4.6669459200636
3.333529918352259
2.000116797042722
0.6667054065719373
14.00103985611906
12.66757307061355
11.33411616656256
10.00066837620297
8.667228811918761
7.333796496279439
6.000370387183201
4.666949397953253
3.33353241265879
2.000118297236756
0.6667059071950289
14.00062707879735
12.66718890061032
11.33376559716265
10.0003549748398
8.666954982900933
7.333563743173099
6.000179555921346
4.666800889144334
3.333426357042007
2.000054691860584
0.666684711976245
14.00070659889821
12.66726221019327
11.33383191046386
10.00041378827443
8.66700600961093
7.333606852612619
6.000214721348156
4.666828144177154
3.333445761368189
2.000066305610479
0.6666885780805618
14.00077905957858
12.66732932525769
11.33389288355768
10.0004680777625
8.667053275305719
7.33364690484751
6.000247475426703
4.666853581759123
3.333463899352121
2.00007717247889
0.6666921973957227
14.00084384284486
12.66738958831913
11.33394785045985
10.00051719696049
8.667096177473269
7.333683361059856
6.000277358679392
4.666876833573343
3.333480502333661
2.000087129124799
0.6666955151260422
14.00090058894311
12.66744258025112
11.3339963595875
10.00056068763803
8.66713427450164
7.333715816208129
6.000304019002114
4.666897613292515
3.333495359308617
2.000096046411919
0.6666984878100974
14.0009491285205
12.66748806367423
11.33403812778514
10.00059824329456
8.667167257605708
7.333743977927432
6.000327196276421
4.666915705803226
3.333508309878286
2.000103825438692
0.6667010820408885
14.00098942221816
12.66752593091462
11.33407299667653
10.00062967347201
8.667194922373069
7.33376764443631
6.000346705742412
4.666930955218588
3.333519236209363
2.000110392927269
0.6667032729647568
14.00102150970115
12.66755615889488
11.3341008938202
10.0006548711679
8.667217142128235
7.333786683360159
6.000362421707623
4.666943252903026
3.333528054872952
2.000115696489436
0.666705042730949
14.00104546863292
12.6675787719769
11.33412179999812
10.00067378481138
8.667233844568806
7.333801012812589
6.000374262750958
4.666952526439909
3.333534709239814
2.000119700179817
0.6667063790292118
14.00106138323882
12.66759381292559
11.3341357231796
10.00068639557284
8.667244992547161
7.333810585608359
6.00038217921767
4.666958730206544
3.333539162928068
2.000122380641513
0.6667072738184443
14.00106932171846
12.66760132171083
11.33414267923246
10.00069270032563
8.66725056946111
7.333815377129866
6.000386143515826
4.666961838001533
3.333541394645398
2.000123724059214
0.66670772231942
14.00071733772154
12.66727196278164
11.33384059958625
10.00042138014115
8.667012502112772
7.333612264566115
6.000219083224667
4.66683149049431
3.333448124732667
2.000067712301778
0.6666890450323874
14.00078442219989
12.6673342306962
11.33389728496008
10.0004719493445
8.667056607183413
7.333649698184353
6.000249738155992
4.666855325004797
3.333465134578389
2.000077909346281
0.6666924422782451
14.00084595899578
12.66739157781323
11.33394968420387
10.00051885226924
8.667097637095228
7.333684612202929
6.000278392108005
4.666877642819379
3.333481083043123
2.000087478549077
0.6666956317600421
14.00090131727819
12.66744335762093
11.33399715865891
10.00056147955623
8.667135030377096
7.333716508467635
6.000304622546002
4.666898106434796
3.333495724501797
2.000096270774169
0.6666985634784208
14.0009500819228
12.66748912226715
11.3340392483116
10.00059937876438
8.667168360050105
7.333745000928674
6.000328097155413
4.666916447412868
3.333508861999114
2.000104165802891
0.6667011970238111
14.00099200420423
12.66752858139356
11.33407563834552
10.00063222789334
8.66719731320261
7.333769800303368
6.00034856267442
4.666932458576883
3.333520342155732
2.000111069471486
0.6667035006547349
14.00102695610053
12.6675615628086
11.33410612616617
10.00065980841788
8.667221669482499
7.33379069737054
6.000365832318406
4.666945984944731
3.333530049087311
2.000116910184141
0.6667054501626906
14.00105489041776
12.66758797731347
11.33413059117294
10.00068197995688
8.667241280401161
7.33380754651699
6.000379773120422
4.666956914420903
3.333537898059939
2.000121635231953
0.6667070276665984
14.00107580775434
12.66760778895736
11.33414896868043
10.00069865799228
8.667256050789288
7.333820250736112
6.000390294204409
4.666965169054494
3.333543829464304
2.000125207269316
0.6667082204539502
14.00108973055817
12.66762099127872
11.33416122874666
10.00070979549928
8.667265923285195
7.333828748911571
6.000397336725562
4.666970697463112
3.333547803551071
2.000127601217785
0.6667090199595735
14.00109668411024
12.66762758965282
11.33416736024087
10.00071536895666
8.667270866390711
7.333833005926877
6.000400865976713
4.666973468843366
3.333549796244248
2.00012880179395
0.6667094209485983
14.00079554841006
12.66734432422427
11.33390626357341
10.00047977827458
8.667063286744902
7.33365525211136
6.000254203297073
4.66685874268798
3.333467543731347
2.000079341322781
0.6666929172824413
14.00085227592735
12.66739732096928
11.33395480298233
10.00052332322856
8.667101457206149
7.333687792354332
6.000280951267579
4.666879603066941
3.333482465562605
2.00008830058226
0.6666959044835127
14.0009046402576
12.66744640697302
11.33399990178789
10.00056389733283
8.667137114165731
7.333718257183633
6.000306039948947
4.666899198782027
3.333496498623587
2.000096732590498
0.6666987169539104
14.00095202434112
12.66749096366477
11.33404095846182
10.00060093300597
8.667169738718032
7.333746188700593
6.000329082386195
4.666917221510631
3.33350941887959
2.000104501446512
0.6667013091509265
14.00099398922129
12.66753053656381
11.33407751927087
10.00063399280794
8.667198923835358
7.333771222562028
6.000349767154636
4.666933420914674
3.333521043252401
2.000111495623883
0.6667036436220228
14.00103023908293
12.66756480609576
11.33410925458025
10.00066275070888
8.667224359953556
7.333793077194889
6.000367850543097
4.666947599207361
3.333531226092813
2.000117625997272
0.6667056903709644
14.00106058744878
12.66759355851506
11.33413593447848
10.00068697215996
8.667245819081566
7.333811541460375
6.000383147275302
4.666959604470282
3.333539854703312
2.000122823277358
0.6667074260232762
14.00108492665709
12.66761665903488
11.33415740571439
10.00070649478069
8.667263139028774
7.333826462117483
6.000395520865885
4.666969323563709
3.333546844506357
2.000127035207949
0.6667088329083208
14.00110320184689
12.66763402849492
11.33417357129705
10.00072121096216
8.667276208943546
7.33383773213323
6.000404874486333
4.666976675319181
3.333552134352744
2.000130223822745
0.6667098981571774
14.00111539004279
12.66764562431935
11.33418437360116
10.00073105325482
8.66728495700198
7.333845280605226
6.00041114300098
4.666981604545461
3.333555682357917
2.000132362997166
0.6667106128951886
14.00112148453373
12.6676514261272
11.33418978145568
10.00073598308089
8.667289340801617
7.333849064825429
6.000414286643061
4.666984077235167
3.333557462553778
2.000133436472132
0.6667109715889613
14.00086178271807
12.66740589241855
11.33396237580279
10.00052987817322
8.6671070074957
7.333692372548505
6.000284607266698
4.66688238361709
3.3334844154104
2.000089455280727
0.6666962867779976
14.00091005444821
12.66745126512047
11.33400417099672
10.00056757126782
8.66714020604546
7.333720792951204
6.000308052067086
4.666900720911085
3.333497561298294
2.000097359918181
0.666698924305356
14.00095487576494
12.66749351396366
11.33404319120752
10.00060284637391
8.667171341662808
7.333747497177071
6.000330115877123
4.666918000019621
3.333509960468536
2.000104820342193
0.6667014144138408
14.00099565790807
12.6675320565915
11.33407887568242
10.00063517816029
8.667199936516688
7.333772065076334
6.000350444506392
4.666933939181407
3.333521408395184
2.000111712559361
0.6667037155624168
14.00103195843023
12.66756644574545
11.33411078571173
10.00066414913517
8.667225605828111
7.333794154603472
6.000368747042798
4.666948305364105
3.333531735056948
2.000117933146891
0.666705793043742
14.00106345703197
12.66759634913187
11.33413858833091
10.00068943682134
8.66724804806308
7.333813494539341
6.000384790630259
4.666960910674833
3.333540802632194
2.000123397974741
0.6667076185758554
14.00108993106439
12.66762152836533
11.33416203868439
10.00071079935414
8.667267033467828
7.333829875610022
6.000398393805871
4.666971607574567
3.333548502301615
2.00012804037777
0.6667091697082642
14.00111123259827
12.66764181880901
11.3341809627401
10.0007280610186
8.667282392266094
7.333843141113017
6.000409419294711
4.666980283586083
3.333554750644347
2.000131809066529
0.666710429137905
14.00112726830801
12.66765711158068
11.33419524158728
10.00074109887813
8.667294003555458
7.333853177948756
6.000417767006637
4.66698685607698
3.333559486043962
2.00013466602631
0.6667113840184297
14.0011379829193
12.66766733854424
11.33420479816232
10.00074983132038
8.66730178567351
7.33385990874472
6.000423367817545
4.666991267582269
3.333562665440767
2.000136584608198
0.6667120253305865
14.00114334662049
12.66767246077665
11.33420958694438
10.0007542090782
8.667305688574888
7.333863285568885
6.000426178566475
4.666993482015808
3.333564261687043
2.000137547968519
0.6667123473667554
14.00091627833052
12.66745675067535
11.33400889849461
10.00057155573048
8.667143487227536
7.333723425640345
6.000310097320119
4.666902238576052
3.333498603970659
2.000097968346226
0.6666991241901598
14.00095781692559
12.66749601475436
11.33404525836727
10.00060450720192
8.667172637522835
7.333748477193716
6.000330831226428
4.666918499046808
3.333510284735643
2.00010500162002
0.6667014725854303
14.00099659444967
12.66753275499751
11.33407935552702
10.0006354698918
8.667200077494172
7.333772095733491
6.000350404882016
4.666933865955881
3.333521332494139
2.00011165733217
0.6667036955144098
14.00103205599475
12.66756642695267
11.33411066889882
10.00066395781668
8.667225366511541
7.33379389468028
6.000368492883423
4.666948080692193
3.333531559635889
2.000117821782407
0.6667057548902113
14.00106376719082
12.66759659784878
11.33413877868943
10.00068957485925
8.6672481418152
7.33381355308228
6.000384823195751
4.666960925875005
3.333540807820402
2.000123398751115
0.6667076184383689
14.00109139794073
12.6676229331144
11.33416335555327
10.00071200632814
8.667268112146525
7.333830810967634
6.000399173885379
4.666972223159234
3.333548946599993
2.000128308750938
0.6667092594605393
14.001114704976
12.6676451814091
11.33418414808416
10.00073100877408
8.667285049672618
7.33384546311862
6.000411368474388
4.666981829917891
3.333555871215204
2.000132487771817
0.6667106564275841
14.00113351486416
12.66766315970452
11.33420097003967
10.00074639931539
8.667298781288576
7.333857352175844
6.000421270650303
4.666989635363954
3.333561499958586
2.000135885754825
0.666711792480389
14.00114770864262
12.66767673956599
11.33421368838951
10.00075804547409
8.667309180187404
7.33386636183671
6.00042877896036
4.66699555660177
3.333565771456576
2.000138465004223
0.6667126549077987
14.00115720887237
12.66768583544845
11.33422221298803
10.00076585628115
8.667316158389919
7.333872410755671
6.000433821999891
4.666999535010674
3.333568642160055
2.000140198713025
0.666713234660617
14.0011619696129
12.66769039554815
11.33422648842648
10.00076977519439
8.667319660743978
7.333875447603043
6.00043635448467
4.667001533273329
3.333570084271162
2.000141069740196
0.6667135259476414
14.00095934851102
12.66749707729577
11.33404589931573
10.00060479480848
8.667172652715562
7.333748305846819
6.000330557272426
4.666918198674692
3.333510021759473
2.000104823999338
0.6667014100268021
14.00099571291774
12.66753162285922
11.33407804031773
10.00063404930509
8.667198633822846
7.333770710656226
6.000349154872989
4.666932818458925
3.333520542899417
2.000111166726118
0.6667035291417284
14.00102982194555
12.66756408838511
11.33410830049778
10.00066163737088
8.667223171244149
7.333791897893288
6.000366761065807
4.666946671157599
3.333530518691506
2.000117183391403
0.6667055397724446
14.00106115371609
12.66759396426441
11.33413619388687
10.00068710696351
8.667245855890622
7.333811509107345
6.000383074373356
4.666959517295356
3.333539775457716
2.000122768754185
0.6667074066679071
14.00108928693869
12.66762083446904
11.33416131975383
10.0007100820085
8.667266344789097
7.333829241799261
6.000397838988048
4.666971152791936
3.333548164710135
2.000127832643681
0.6667090995924212
14.00111389023885
12.66764436780119
11.334183355676
10.00073025710754
8.66728435719364
7.333844846680918
6.000410842928197
4.666981407786634
3.333555562454409
2.00013229959979
0.6667105932157108
14.001134709864
12.66766430738102
11.33420204879491
10.00074739046115
8.667299669014746
7.333858123417889
6.000421914893009
4.666990144415943
3.333561867727399
2.000136108047187
0.6667118668463033
14.00115155714569
12.6676804596582
11.33421720642578
10.00076129604115
8.667312106459105
7.333868915603084
6.000430920419792
4.666997254006326
3.333567000695044
2.000139209196869
0.6667129040727025
14.0011642967827
12.66769268396984
11.33422868697473
10.00077183587891
8.667321539643599
7.333877105612762
6.000437757877871
4.667002654097514
3.333570900606088
2.000141565851902
0.6667136923710246
14.0011728367241
12.66770088341497
11.33423639190238
10.00077891315517
8.66732787680052
7.333882609881047
6.000442354745392
4.667006285647084
3.333573523853945
2.000143151269357
0.6667142227299276
14.00117712019152
12.667704997596
11.33424025927489
10.00078246660611
8.667331059545685
7.333885375008991
6.000444664520058
4.667008110695285
3.333574842348687
2.000143948200575
0.6667144893336893
14.00099131392685
12.6675270825151
11.33407349507243
10.00062963854784
8.66719449381946
7.333766969155345
6.000345926582208
4.666930201450953
3.333518615905586
2.00010998721536
0.6667031320631138
14.00102392433275
12.66755819077218
11.33410255096212
10.0006561799905
8.667218141735546
7.333787419898419
6.000362943171491
4.666943604635253
3.333528275879872
2.000115816610619
0.6667050806520449
14.0010546324599
12.66758753093266
11.33412999616761
10.0006812843905
8.667240536755251
7.333806807988371
6.00037909028508
4.666956332394206
3.333537454208237
2.000121357439305
0.666706933132277
14.00108294430379
12.66761462189595
11.33415537283095
10.00070452647429
8.667261294399927
7.33382479675602
6.000394084874072
4.6669681599376
3.333545987878424
2.00012651092681
0.6667086564190206
14.00110845196071
12.66763906299985
11.33417829667574
10.00072554682774
8.667280087744999
7.333841098424814
6.000407683933988
4.666978893599773
3.33355373607906
2.000131191601004
0.6667102218579967
14.00113082672744
12.66766052847343
11.33419845273328
10.00074404875485
8.667296645233002
7.3338554726833
6.000419683644184
4.666988370370908
3.33356057997583
2.000135327203294
0.6667116052035534
14.00114981037156
12.66767876001614
11.33421558921695
10.00075979336807
8.667310746855632
7.33386772380986
6.000429917279323
4.666996456447357
3.333566421774099
2.000138858166748
0.6667127864515431
14.00116520574446
12.66769355859181
11.33422951053045
10.00077259378144
8.667322219455697
7.333877696978052
6.000438252399589
4.667003045190128
3.333571183342301
2.000141736823946
0.6667137495810179
14.00117686769546
12.66770477634535
11.33424007024971
10.00078230916343
8.667330931812764
7.333885274307014
6.000444587781981
4.667008054849852
3.333574804651116
2.00014392649758
0.6667144822558004
14.00118469502821
12.66771230936113
11.33424716475648
10.00078883927171
8.667336790067107
7.333890371135416
6.000448850488771
4.667011426368612
3.333577242251136
2.000145400607131
0.6667149755301151
14.00118862404354
12.66771609180118
11.33425072804069
10.00079211995232
8.667339733918428
7.333892932899952
6.000450993392107
4.667013121510652
3.333578467970714
2.000146141901765
0.6667152235953753
14.00101245331921
12.66754696155998
11.33409180871246
10.00064615132797
8.66720903092544
7.333779406143845
6.000356178913104
4.666938214663025
3.333524357030006
2.00011343781724
0.6667042831477524
14.00104262220085
12.66757582772183
11.33411884667386
10.0006709136599
8.667231145286456
7.333798569900857
6.000372152405604
4.666950814038514
3.333533447417752
2.000118927441628
0.6667061188254014
14.00107111196512
12.667603123898
11.3341444463164
10.00069438595808
8.667252129518552
7.333816771052453
6.000387335414317
4.666962797523724
3.333542097617926
2.000124152934974
0.6667078664650522
14.00109744853522
12.66762838903011
11.33416816930441
10.00071616137381
8.66727161597241
7.333833687754778
6.000401457391789
4.666973950267161
3.333550151825584
2.00012901988816
0.66670949444368
14.00112123453093
12.66765123396341
11.33418964330813
10.00073589234081
8.667289288975287
7.333849042451838
6.000414284160416
4.666984085749279
3.33355747447991
2.000133446036508
0.6667109751855674
14.00114214468305
12.66767133787181
11.33420855937013
10.00075328876693
8.667304883701973
7.333862601266908
6.000425617667063
4.666993045756589
3.333563950337336
2.000137361341229
0.6667122851957973
14.00115991933413
12.66768844277645
11.33422466742638
10.00076811449074
8.667318183464577
7.333874172002681
6.000435294564992
4.667000699423648
3.333569483868553
2.000140707661163
0.6667134049565633
14.00117435705672
12.66770234711131
11.33423777084365
10.00078018276471
8.667329016077057
7.333883601299203
6.000443184066658
4.667006941683105
3.333573998219726
2.000143438157973
0.6667143187337233
14.00118530726463
12.66771289916119
11.33424772073302
10.0007893514463
8.667337249890805
7.333890771455942
6.000449185480952
4.667011691444701
3.333577433966029
2.000145516571026
0.6667150143390452
14.00119266352273
12.66771999104766
11.33425441067041
10.00079551847274
8.667342790011292
7.333895597355681
6.000453225796702
4.66701488978575
3.33357974785988
2.000146916483613
0.6667154828884994
14.00119635809204
12.66772355378535
11.33425777231966
10.00079861807608
8.667345575105506
7.333898023846195
6.000455257608542
4.667016498386425
3.33358091174195
2.000147620681632
0.6667157185907023
14.00102296975927
12.66755686175064
11.33410093855176
10.00065439103359
8.667216290819079
7.333785621733099
6.000361305821257
4.666942223831954
3.333527230501694
2.000115165299089
0.6667048594899246
14.00105193636716
12.66758462189356
11.33412697941382
10.00067827291209
8.667237645186296
7.333804146903152
6.000376761197058
4.666954423605136
3.333536037542729
2.000120485826705
0.6667066389615958
14.00107933181545
12.66761090817633
11.33415166583002
10.00070093648413
8.667257929472493
7.333821758511545
6.000391464885539
4.666966036774686
3.333544424815392
2.000125554268326
0.6667083343752458
14.00110469236823
12.6676352698535
11.33417456944685
10.00072198427757
8.667276784563208
7.333838142213821
6.000405152651521
4.666976853501046
3.333552240146099
2.000130278413162
0.6667099148437763
14.00112762636554
12.66765732388786
11.33419532419018
10.00074107486508
8.667293900572536
7.333853025682711
6.000417594816193
4.666986690897213
3.333559350638337
2.00013457762239
0.6667113533378685
14.00114781073531
12.66767675231281
11.33421362441339
10.00075792169221
8.667309016220285
7.333866178391978
6.000428596306988
4.666995393215942
3.333565642888726
2.000138382992476
0.6667126267462102
14.00116498556565
12.66769329768374
11.33422922121134
10.00077229019313
8.66732191665692
7.333877410040229
6.000437995564532
4.667002831130131
3.333571022546444
2.00014163712126
0.6667137158026351
14.00117894769556
12.66770675750374
11.33424191770114
10.00078399390123
8.667332430345486
7.333886568124479
6.000445662718569
4.667008900423017
3.333575413439526
2.000144293609411
0.6667146049243471
14.00118954415693
12.66771697840594
11.33425156398698
10.00079289019746
8.667340425562429
7.33389353514013
6.000451497422362
4.667013520389803
3.333578756482586
2.00014631642594
0.666715282003981
14.00119666615122
12.66772385074395
11.33425805241577
10.00079887624757
8.667345807004168
7.333898225824912
6.00045542668965
4.667016632219505
3.333581008558471
2.000147679252853
0.6667157381939099
14.00120024409129
12.66772730410244
11.33426131360597
10.00080188557081
8.667348512895265
7.333900584788783
6.000457403018566
4.667018197580657
3.333582141534246
2.000148364906076
0.6667159677150872
4.666731256499713
3.333376972084156
2.000025210432202
6.000135153224941
4.666766597901148
3.333402009477
7.333561354832864
6.000177600346417
4.666799368280667
8.667008192945795
7.333608593613205
6.000216066417336
10.00047327298465
8.667057565787296
7.333650359438457
11.33395361954755
10.00052196251909
8.667100018950981
12.66744591575266
11.333998853668
10.0005624415523
8.667135414519178
14.00094680722843
12.66748516796764
11.3340348221984
10.00059471449893
14.00097796775715
12.66751437507663
11.33406164683487
14.00099857809723
12.66753372712968
14.00100883254463
15.33433131026949
15.33438852969999
15.334431577937
15.33443359739232
15.3344710865453
15.33450617927094
15.33446695606906
15.33450042892383
15.33453189663247
15.33456086341076
15.33448897485507
15.33451984350418
15.33454895307046
15.33457582692828
15.33460006853549
15.33449991627329
15.33452950488475
15.33455745308743
15.33458329430946
15.3346066370888
15.33462716072383
15.33445322978984
15.33447473136285
15.3344854174397
15.33397289899351
15.33407385454159
15.33416467877
15.33424492949515
15.33431448143383
15.33437342033779
15.33442195543387
15.33446035022679
15.33448886997553
15.33450774347381
15.33451713675915
15.33408240640908
15.33416700385841
15.33424370841805
15.33431197340796
15.33437152426195
15.33442227957139
15.33446428295769
15.33449764714246
15.33452251000303
15.33453900159516
15.33454722086479
15.33417859636984
15.33424945525695
15.33431417984882
15.33437217927441
15.33442309104435
15.33446672366699
15.33450300500502
15.33453193830252
15.33455356650874
15.33456794475166
15.33457512044644
15.33426147241999
15.33432098641648
15.33437572711933
15.33442509829955
15.33446869252344
15.33450625046514
15.33453762266467
15.33456273576896
15.33458156428861
15.33459410823488
15.33460037661742
15.33438163138021
15.33442821632172
15.33447048592993
15.33450801594973
15.33454050888184
15.33456776624702
15.33458966317591
15.33460612649371
15.33461711692926
15.33462261572507
15.33447166556632
15.3345082409576
15.334540879744
15.33456926580415
15.33459317148541
15.33461243874609
15.33462696237382
15.3346366760197
15.33464154148355
15.334538353597
15.33456719335513
15.33459237560722
15.33461365666865
15.33463085817168
15.33464385424442
15.33465256056764
15.33465692581834
15.33458692368282
15.33460975383205
15.33462910223321
15.33464477879464
15.33465664499895
15.33466460518419
15.33466859960028
15.33462135583193
15.33463943377213
15.33465410608324
15.3346652271515
15.33467269475958
15.33467644420959
15.33464460900758
15.33465878305684
15.33466953410509
15.33467675695666
15.33468038463965
17.95145643449208
16.65129412046213
17.95146728515675
16.65130501302906
17.95092894801341
16.6507737183982
17.95103761630394
16.65087965628657
17.9511342033502
16.65097439143161
17.9512186116934
16.65105764054681
17.95129105223456
16.65112943914253
17.95135191540298
16.6511900226008
17.95140167180187
16.65123973119033
17.95144079870997
16.65127893740028
17.95146972768802
16.6513079924327
17.95148880862743
16.65132718833677
17.95149828628283
16.65133673258947
17.95104696703119
16.65088870297526
17.95113663616147
16.65097679617404
17.95121710561432
16.65105626166498
17.95128804928643
16.65112665245223
17.95134941609092
16.65118779957564
17.95140133324222
16.65123972320379
17.95144402771797
16.65128255824437
17.95147776523642
16.6513164949329
17.95150280465905
16.6513417332972
17.95151936527812
16.65135844972853
17.9515276045875
16.65136677380872
17.95114925713954
16.65098903573293
17.95122327444652
16.65106228586847
17.95129029649246
16.65112890436254
17.95134987472815
16.65118836260738
17.95140179592055
16.65124036719245
17.95144601171274
16.65128479524904
17.95148257858804
16.65132163786649
17.95151160911926
16.65135095305753
17.95153323403422
16.65137282839006
17.95154757398656
16.65138735266901
17.95155471975843
16.65139459577289
17.95123635312322
16.65107497412326
17.95129766722409
16.65113607316427
17.95135365092797
16.65119206639029
17.95140380195754
16.65124239675847
17.95144781415678
16.65128670225367
17.95148552752441
16.6513247700423
17.95151688356963
16.65135649450064
17.95154188753018
16.65138184095688
17.95156057787703
16.65140081590473
17.95157300288506
16.6514134437742
17.95157920375881
16.65141974999738
17.95130899934
16.65114702400498
17.95136017500725
16.65119835170636
17.9514072613384
16.65124572343298
17.9514497437074
16.65128858529477
17.95148726860167
16.65132654342159
17.9515196090105
16.65135933221974
17.9515466319689
16.65138678390053
17.95156826995753
16.65140880112082
17.95158449700751
16.65142533376818
17.95159530979808
16.65143636036186
17.95160071371674
16.65144187419834
17.95136800756603
16.65120580186433
17.95141126581569
16.6512494494051
17.95145134500206
16.65128999242408
17.95148774040329
16.6513268963639
17.95152007923302
16.65135975786342
17.95154809716714
16.65138828326517
17.95157161514597
16.65141226686162
17.95159051806739
16.65143157055532
17.95160473637022
16.65144610602929
17.95161423105478
16.65145582008284
17.95161898239055
16.65146068348168
17.95141415780603
16.65125193442992
17.95145142889961
16.65128974320695
17.95148617230629
16.65132506170478
17.95151790255474
16.6513573803024
17.95154624322699
16.65138629810584
17.95157091128653
16.65141150865649
17.95159170062218
16.65143278452663
17.95160846624792
16.6514499622624
17.95162111016615
16.65146292873206
17.95162956955191
16.6514716095998
17.95163380765704
16.6514759603856
17.95144813169699
16.65128598826332
17.95148111346592
16.6513195965287
17.95151201336026
16.65135113766324
17.95154036610297
16.65138012560265
17.95156579876373
16.65140616664863
17.95158802029136
16.65142894999689
17.95160680970029
16.65144823670965
17.95162200417244
16.65146384839757
17.95163348803294
16.65147565659483
17.95164118328953
16.65148357355445
17.95164504220537
16.65148754497201
17.95147046949842
16.65130842223617
17.9515006868046
16.65133931514471
17.95152909987481
16.65136840571389
17.95155525934263
16.65139522566158
17.95157879732564
16.65141938844496
17.95159942012243
16.65144058272702
17.95161689929091
16.65145856407964
17.9516310622315
16.65147314604209
17.95164178317933
16.65148419145376
17.95164897529465
16.65149160477282
17.95165258434964
16.65149532590501
17.95148154361742
16.65131955699354
17.95151040706173
16.65134911768284
17.95153759937549
16.65137700335302
17.95156267982496
16.65140275519045
17.95158528382198
16.65142599090004
17.95160511711302
16.65144639956005
17.95162194824119
16.65146373463231
17.95163560033236