/*--------------------------------*- C++ -*----------------------------------*\
  =========                 |
  \\      /  F ield         | OpenFOAM: The Open Source CFD Toolbox
   \\    /   O peration     | Website:  https://openfoam.org
    \\  /    A nd           | Version:  7
     \\/     M anipulation  |
\*---------------------------------------------------------------------------*/
FoamFile
{
    version     2.0;
    format      ascii;
    class       surfaceScalarField;
    location    "0";
    object      phi;
}
// * * * * * * * * * * * * * * * * * * * * * * * * * * * * * * * * * * * * * //

dimensions      [0 3 -1 0 0 0 0];

internalField   nonuniform List<scalar> 
36900
(
-6.854587495761748e-06
-6.520275652865504e-06
-1.841293271212999
7.214830971658001e-06
6.821048848927188e-06
1.841307042025954
-1.918779157030658e-05
-1.738332029890226e-05
2.062540047016645e-05
-1.841309239947095
1.814363253771509e-05
-6.380998473630883e-06
-5.782097126560565e-06
6.031161161912815e-06
1.841322175497874
-2.923489749573346e-05
-2.564496886656734e-05
3.212334234352442e-05
-1.841326134053196
2.671507933791356e-05
1.841319848819055
-1.748377309997904e-05
-1.534912658898107e-05
1.597178415422334e-05
-5.817862397949902e-06
-5.109625077560056e-06
5.313939039686133e-06
1.841338009136802
-3.652784347178796e-05
-3.163830801460308e-05
4.110998108199842e-05
-1.841343854112444
3.290114604568381e-05
1.841333926622275
-2.601952465769674e-05
-2.257857970442483e-05
2.344571761461146e-05
1.841331514729762
-1.557808751610253e-05
-1.353520150986339e-05
1.40414069059062e-05
-5.186604741401111e-06
-4.509359803095519e-06
4.675738092174133e-06
1.841354421175962
-4.071096534290329e-05
-3.569069938360553e-05
4.709490701144854e-05
-1.841362166884045
3.705246579790353e-05
1.841348517455581
-3.163815148752378e-05
-2.783187969690459e-05
2.884590362572943e-05
1.841344368059405
-2.256969208105279e-05
-1.990726859713021e-05
2.060682992421909e-05
1.841341906212562
-1.352593740169185e-05
-1.195204437185492e-05
1.236173954932699e-05
-4.505573492741267e-06
-3.984970645754633e-06
4.119848699767838e-06
1.841371193023081
-4.157183642881178e-05
-3.814586332748817e-05
4.973710437063882e-05
-1.841380745079597
3.953265191114517e-05
1.841363493989819
-3.409872037174458e-05
-3.146106490627869e-05
3.254784860233707e-05
1.841357585914988
-2.654413898415344e-05
-2.46032245766252e-05
2.541728406946257e-05
1.841353411814076
-1.895979343260388e-05
-1.763581450995345e-05
1.820001445551611e-05
1.841350926576463
-1.137216748304761e-05
-1.060361936611184e-05
1.093508550065184e-05
-3.789746541883602e-06
-3.537957795729509e-06
3.647257061879054e-06
1.841378666139159
-3.329102242994649e-05
-3.382618362226556e-05
-1.841388052837342
3.493206553604223e-05
1.841371048571217
-2.735378125801255e-05
-2.798834246484633e-05
2.886096792766788e-05
1.841365170260544
-2.13232493988204e-05
-2.194482774964262e-05
2.260224593708697e-05
1.84136099944006
-1.524665926493201e-05
-1.576152348370385e-05
1.621920743781667e-05
1.841358508997402
-9.151442248022384e-06
-9.489353729463801e-06
9.759069583870427e-06
-3.050769071387969e-06
-3.168301521694331e-06
3.257378084909427e-06
1.841393824581482
-2.924676555913291e-05
-3.530201776134083e-05
3.906276653025338e-05
-1.841404732443577
3.639387887943712e-05
1.841384603380281
-2.496555368480813e-05
-3.042976388201162e-05
3.132549261155566e-05
1.841377079103073
-2.054095619641316e-05
-2.524989243393149e-05
2.596134148116145e-05
1.84137124685071
-1.60299390503445e-05
-1.984354916841877e-05
2.038248819769031e-05
1.841367094657042
-1.147127217304696e-05
-1.427735676884361e-05
1.465416094084061e-05
1.841364609670566
-6.889159599655315e-06
-8.605947554896327e-06
8.828649781732976e-06
-2.297239050298137e-06
-2.875054074613364e-06
2.948713107797979e-06
1.841408792152432
-2.213697363195877e-05
-3.627480883241428e-05
3.330647441401869e-05
-1.841421028656169
3.73418117991519e-05
1.841398105793356
-1.9464520260979e-05
-3.230144371637588e-05
3.32055544003395e-05
1.841389027977772
-1.663446905679982e-05
-2.79202040616157e-05
2.866693213046074e-05
1.841381590120225
-1.369971912158445e-05
-2.322183012548645e-05
2.381844734982052e-05
1.841375805517573
-1.069952379250153e-05
-1.828444835387705e-05
1.873863265342613e-05
1.841371676769608
-7.66129016891517e-06
-1.317456908442898e-05
1.349333254920786e-05
1.841369201591109
-4.602874117452611e-06
-7.948916402122659e-06
8.137807743980052e-06
-1.535166552414061e-06
-2.65684686495681e-06
2.719405813844948e-06
1.841423475947314
-1.225641660695942e-05
-3.713104413805085e-05
2.45842647594646e-05
-1.841436859951887
3.818720057577907e-05
1.841411464605832
-1.104618207544824e-05
-3.398130988077002e-05
3.490185800281146e-05
1.841400935844522
-9.720402596867893e-06
-3.032772579558699e-05
3.11123671288271e-05
1.841391962727734
-8.312880610918939e-06
-2.626623404999862e-05
2.691775931218388e-05
1.841384590315537
-6.850292667423273e-06
-2.188297131247045e-05
2.240595367184484e-05
1.841378843751209
-5.352635512515246e-06
-1.725378565455787e-05
1.765345845861077e-05
1.841374735185679
-3.834073683514283e-06
-1.244480604829438e-05
1.27261524518474e-05
1.841372269298693
-2.304048559476854e-06
-7.513828359373664e-06
7.680888003979984e-06
-7.685465139168526e-07
-2.512298979295835e-06
2.567684769872447e-06
1.841437913836428
-3.824090657897977e-05
1.33103011612727e-05
-1.841452311462337
3.932823130980979e-05
1.841424686181812
-3.584256556874392e-05
3.681380318099058e-05
1.841412790385322
-3.284566176553483e-05
3.369527475882706e-05
1.841402343366479
-2.934910655052455e-05
3.007572051063591e-05
1.841393425315717
-2.544518322546965e-05
2.605035046698845e-05
1.841386087972642
-2.121767548044517e-05
2.170472267972713e-05
1.841380362313078
-1.674121603683031e-05
1.711423707537765e-05
1.841376265210769
-1.208165357522464e-05
1.234467976285458e-05
1.841373804800719
-7.297224316227507e-06
7.453584148731619e-06
-2.440322135810469e-06
2.492190562453354e-06
1.841402608458043
-0.0001300683257123955
-0.0001314373342431452
-1.841428078397701
0.0001458716668406359
0.0001411039327346712
1.841380930006361
-0.0001190604802352659
-0.0001202333476523427
0.0001325613773442761
0.0001284109034737024
1.841362788723297
-0.0001069870364247548
-0.0001079692877688836
0.0001183241744723956
0.0001147734331901185
1.841347851890745
-9.431416839376176e-05
-9.511862292552769e-05
0.0001036776444607311
0.0001006919792325383
1.841335761380714
-8.138467769544072e-05
-8.202858311432437e-05
8.898400565726661e-05
8.651976437102295e-05
1.841326170310388
-6.843213247975645e-05
-6.89346994331426e-05
7.447357282051103e-05
7.248432808734771e-05
1.841318766492307
-5.559845836767792e-05
-5.597884384820376e-05
6.027001492281422e-05
5.871110368703227e-05
1.841313286161666
-4.295206242939287e-05
-4.322779279051269e-05
4.641423246911594e-05
4.524595148638274e-05
1.841309521133923
-3.050485970532794e-05
-3.069064806369195e-05
3.288538962564758e-05
3.207514411982627e-05
1.841307321944744
-1.822750104278712e-05
-1.833440459511018e-05
1.961869859950079e-05
1.914239477198602e-05
-6.062740377552952e-06
-6.097603049259889e-06
6.363162266204351e-06
1.841413616303512
-0.0001176976414416604
-0.0001125552833288303
-1.841437424876485
0.0001239931731120695
1.841393003450156
-0.0001083254275542342
-0.0001036179199545018
0.000113495722008139
1.841375461591328
-9.782992844264957e-05
-9.360230110719846e-05
0.0001019870520622135
1.84136078138142
-8.663309091438975e-05
-8.291058154417133e-05
8.990971285274211e-05
1.84134871392596
-7.505648922907696e-05
-7.184942819016289e-05
7.758869317799847e-05
1.841339003984526
-6.332950580521053e-05
-6.0637863906976e-05
6.524517593753387e-05
1.841331412888227
-5.160171873044207e-05
-4.941908650759562e-05
5.301343993111602e-05
1.841325733364384
-3.995691371947529e-05
-3.82738077624894e-05
4.09581797528254e-05
1.841321798492578
-2.842710099273303e-05
-2.723358165241824e-05
2.909069207568401e-05
1.841319486705403
-1.700570367459864e-05
-1.629333334176545e-05
-5.659634969414513e-06
-5.422827564839015e-06
1.841422988517397
-0.0001045493400557599
-9.611748591733567e-05
-1.84144515116952
0.0001051318376545263
1.84140349894926
-9.670572476579033e-05
-8.903540851079537e-05
9.690527519623553e-05
1.841386658428863
-8.773937391898035e-05
-8.089703635327772e-05
8.76470022461709e-05
1.841372357983118
-7.802219716016438e-05
-7.203909023876228e-05
7.772864134381074e-05
1.841360440909382
-6.784666102355167e-05
-6.272779283480425e-05
6.743503659123462e-05
1.841350731771602
-5.74295119206917e-05
-5.316210539900652e-05
5.697124679011702e-05
1.841343057693235
-4.691993051593348e-05
-4.348091950654473e-05
4.64732068348185e-05
1.841337263177102
-3.64099365231604e-05
-3.377226401912736e-05
3.601980020828686e-05
1.841333219889887
-2.594556932677957e-05
-2.408321711313521e-05
1.841330832774098
-1.553796826441459e-05
-1.442974775724935e-05
-5.173955395285622e-06
-4.806130852297295e-06
1.841430832132701
-9.104295079008814e-05
-8.205327707371306e-05
-1.84145142425945
8.913901556542001e-05
1.841412465300136
-8.459088548917748e-05
-7.646408822128442e-05
8.271608264109956e-05
1.841396375605619
-7.70667185729935e-05
-6.986631531269438e-05
7.528335445097172e-05
1.841382533519223
-6.878994566768131e-05
-6.253887119354061e-05
6.714870501158743e-05
1.841370858058459
-6.001881044113236e-05
-5.470991470448706e-05
5.855752296288806e-05
1.841361241352983
-5.095095863227463e-05
-4.655709773362343e-05
4.969524738105456e-05
1.841353567687263
-4.172834895264181e-05
-3.821144988602744e-05
4.069353115188102e-05
1.841347727544317
-3.244467228569184e-05
-2.976343401770457e-05
1.841343627490962
-2.315399832905201e-05
-2.127009978472013e-05
1.841341196786979
-1.387982839170644e-05
-1.276263896667874e-05
-4.6240903444286e-06
-4.253948923516712e-06
1.841437284197987
-7.747228219166007e-05
-7.023334321232255e-05
-1.84145642922395
7.580770142341349e-05
1.841419989467036
-7.226552857630972e-05
-6.582597186723944e-05
7.079534690745939e-05
1.841404652378497
-6.607819130621806e-05
-6.047143800382832e-05
6.481999901453214e-05
1.84139130465449
-5.917750354143071e-05
-5.439926296166857e-05
5.813454368563931e-05
1.841379925910299
-5.178468281834392e-05
-4.780341688030943e-05
5.094803147693906e-05
1.841370463962642
-4.407369015964207e-05
-4.084075485240084e-05
4.342543138617829e-05
1.841362851363911
-3.617381918190447e-05
-3.363263555833385e-05
1.841357018218253
-2.817475996148735e-05
-2.626864950183716e-05
1.841352901660902
-2.013309401061031e-05
-1.881161804564401e-05
1.841350452525066
-1.20794763947424e-05
-1.130326210110297e-05
-4.026060984084187e-06
-3.770166662753195e-06
1.841442490951604
-6.402348079849164e-05
-6.049958958698198e-05
-1.841460348761522
6.49085989188336e-05
1.841426176804299
-5.992130753320528e-05
-5.701171702554575e-05
6.098164414578618e-05
1.841411553066282
-5.496197616765432e-05
-5.264234563640002e-05
5.614986826354307e-05
1.841398697475199
-4.936222667146918e-05
-4.75801127741704e-05
5.062042576398085e-05
1.841387636902953
-4.330517205258585e-05
-4.198952390308572e-05
4.457058333606819e-05
1.841378363833611
-3.693809835890776e-05
-3.600839061945749e-05
1.841370850423138
-3.037351684230832e-05
-2.974796026919993e-05
1.841365059884205
-2.36924658511783e-05
-2.329498297295419e-05
1.84136095527851
-1.694923379873375e-05
-1.671507154212794e-05
1.841358505940469
-1.017689018679675e-05
-1.005686910846604e-05
-3.393214747816749e-06
-3.356677249177486e-06
1.841446593124882
-5.079489718110471e-05
-5.268773988349433e-05
-1.841463349937236
5.621596934928302e-05
1.8414311361357
-4.767175271915781e-05
-4.990029469809075e-05
5.310772989020052e-05
1.841417152815724
-4.383875680373989e-05
-4.629418523549566e-05
4.915428551224262e-05
1.841404754529853
-3.946473783432747e-05
-4.202532054087271e-05
4.452611631933212e-05
1.841394003976626
-3.469476055978557e-05
-3.723383613341014e-05
3.937397577402645e-05
1.841384928415167
-2.96476691224329e-05
-3.204105549134993e-05
1.841377531474104
-2.441623471845108e-05
-2.654868714988562e-05
1.841371803116269
-1.906919929386333e-05
-2.0839739764078e-05
1.841367727622148
-1.365458757089775e-05
-1.498067813505751e-05
1.841365289615898
-8.203808838924687e-06
-9.02443041335188e-06
-2.736201337881282e-06
-3.013942263696007e-06
1.841449716269327
-3.781631576635976e-05
-4.664356490657916e-05
4.952513560014878e-05
-1.841465576420728
1.841434969131585
-3.556774134323559e-05
-4.437374594346029e-05
4.701687301533704e-05
1.841421526834742
-3.277372377397114e-05
-4.134022828314879e-05
4.371749172804605e-05
1.841409524507107
-2.955792785244103e-05
-3.767377589625206e-05
3.976929219895444e-05
1.841399051068105
-2.602803753461927e-05
-3.349530577878561e-05
1.841390159849524
-2.227353862238613e-05
-2.891267932270125e-05
1.841382878509561
-1.83654454706035e-05
-2.401934546356643e-05
1.841377217728017
-1.435748525135947e-05
-1.889448503509274e-05
1.841373178400847
-1.02883073229484e-05
-1.360431246042482e-05
1.841370757223387
-6.184359600002524e-06
-8.204220974538448e-06
-2.063167285750092e-06
-2.741510648030224e-06
1.841451964843763
-2.506634354930603e-05
-4.223398731666449e-05
4.466369183602276e-05
-1.841467144519886
1.841437763149154
-2.361229439393824e-05
-4.032775417632782e-05
4.257400248772686e-05
1.841424742630641
-2.178877736369605e-05
-3.770149168147441e-05
3.973706330282543e-05
1.841413054397417
-1.967672794478389e-05
-3.446777817117652e-05
1.841402805567009
-1.734730498338366e-05
-3.073334886138929e-05
1.841394067942677
-1.486024868465722e-05
-2.659587339413091e-05
1.841386886469766
-1.226351980701997e-05
-2.214228680039753e-05
1.841381286905931
-9.593927708019347e-06
-1.744844559503631e-05
1.841377282348569
-6.878470382229879e-06
-1.25798514042594e-05
1.841374878415702
-4.136153398004438e-06
-7.593191464794436e-06
-1.380109445593084e-06
-2.538469537660938e-06
1.841453418892872
-1.248761266616705e-05
-3.935432023511877e-05
4.149827583204228e-05
-1.841468141578751
1.841439586666217
-1.17741408078961e-05
-3.767887779102542e-05
3.967295141751247e-05
1.841426854680078
-1.087426039923014e-05
-3.531357614328094e-05
1.841415383820392
-9.827967692913008e-06
-3.235921260724695e-05
1.8414052926233
-8.67063374529736e-06
-2.891320316069629e-05
1.84139666467158
-7.432136047247608e-06
-2.506639885599981e-05
1.841389556061856
-6.13662711291773e-06
-2.090125839528922e-05
1.841384002363268
-4.802799982985858e-06
-1.649121850366692e-05
1.841380024665566
-3.444518535035248e-06
-1.190106309549922e-05
1.841377634459673
-2.071696525229505e-06
-7.188081205944154e-06
-6.913366600731505e-07
-2.403811599793503e-06
1.841454132364756
-3.793272566683379e-05
3.993839466558404e-05
-1.841468625645845
1.841440486546588
-3.63692286856842e-05
1.841427900972759
-3.413125320252941e-05
1.841416541154379
-3.131381307572858e-05
1.841406531120962
-2.800970968661625e-05
1.841397960180524
-2.430638215855652e-05
1.841390889888959
-2.028401441300786e-05
1.841385360644749
-1.601477479695745e-05
1.841381397487571
-1.156301725329055e-05
1.841379014819511
-6.986254198704246e-06
-2.336711855322154e-06
1.841414627020182
-0.0001098134726276397
-0.0001161953966441129
-1.841438309559067
0.0001182540750026443
1.841394085713462
-0.0001012370431254791
-0.0001069306113617777
0.0001084756147353594
1.841376573683927
-9.15755111901004e-05
-9.655484417718674e-05
9.767309702216505e-05
1.84136189362988
-8.121855257712329e-05
-8.548728449753185e-05
8.626726700921058e-05
1.841349807243178
-7.046545666010767e-05
-7.404772098951184e-05
7.457097920518947e-05
1.841340068109554
-5.953208314757353e-05
-6.246432204548582e-05
6.280083663962262e-05
1.841332444596835
-4.856177989137419e-05
-5.088572382216954e-05
5.109216939032297e-05
1.841326734808
-3.763790246893361e-05
-3.939484134818345e-05
3.951473670447217e-05
1.841322775726731
-2.679645045639827e-05
-2.802277418290092e-05
2.808765513447512e-05
1.841320448411715
-1.603803557830111e-05
-1.676194728394979e-05
1.679289132723504e-05
-5.338905961216318e-06
-5.578187213118104e-06
5.58720458083353e-06
1.841423203449683
-0.0001000647490625129
-0.0001001863193817783
-1.84144532113551
1.841403747245387
-9.26827080078849e-05
-9.271604975222941e-05
1.841386930642543
-8.420093908469934e-05
-8.416027099249433e-05
1.84137264672577
-7.497119781696426e-05
-7.487402124617421e-05
1.841360740616727
-6.527167375167737e-05
-6.513710480682278e-05
1.841351038412833
-5.531022913942599e-05
-5.515751763138816e-05
1.841343368474234
-4.523182275171305e-05
-4.507910894067181e-05
1.841337576260003
-3.512808937194114e-05
-3.499141029079748e-05
1.841333534141603
-2.504769209241798e-05
-2.494022461592205e-05
1.841331147541334
-1.500662781197449e-05
-1.493814264081998e-05
-4.998101888920039e-06
-4.974599313944356e-06
1.841430585490745
-8.94626058272169e-05
-8.612338766183006e-05
-1.841451181730687
1.841412229014296
-8.322041818196287e-05
-8.014122091637362e-05
1.841396160383821
-7.590667444121456e-05
-7.312267096537557e-05
1.841382346249857
-6.783127340703743e-05
-6.53648822392942e-05
1.841370702061345
-5.92458504264924e-05
-5.710943017156438e-05
1.841361116819222
-5.034429324091137e-05
-4.854280237154239e-05
1.841353472207603
-4.126734894647302e-05
-3.980078512824067e-05
1.841347656657272
-3.210964821769144e-05
-3.097515803052168e-05
1.841343575205888
-2.29279268877392e-05
-2.2121533252185e-05
1.841341156067254
-1.37496538594099e-05
-1.326758460740152e-05
-4.581627593800931e-06
-4.42125060842089e-06
1.841436827678407
-7.836365949387414e-05
-7.39900750943442e-05
-1.841455989825249
1.841419542758073
-7.317933465245119e-05
-6.922025059199414e-05
1.841404235784838
-6.698879533886157e-05
-6.347722179076482e-05
1.841390931672821
-6.005855470302426e-05
-5.700747958061699e-05
1.841379603618508
-5.261018202925664e-05
-5.001753136468793e-05
1.841370193763492
-4.481901429280578e-05
-4.267252494547502e-05
1.841362629908365
-3.681663613484039e-05
-3.509831103887242e-05
1.841356838378622
-2.869580267141807e-05
-2.738575267904303e-05
1.841352753478929
-2.051677493941634e-05
-1.959635438071412e-05
1.841350324093539
-1.23143488719125e-05
-1.176856010820518e-05
-4.105135131303578e-06
-3.92431570788072e-06
1.841442012003217
-6.70308449550522e-05
-6.371510028557753e-05
-1.841459863059335
1.841425733297365
-6.281044142972891e-05
-5.991615855904782e-05
1.841411166025468
-5.767989196712257e-05
-5.521307011666786e-05
1.841398380045497
-5.186257329903285e-05
-4.980926609578929e-05
1.841387394786292
-4.554809608989881e-05
-4.388024630763728e-05
1.841378196141637
-3.888999332168908e-05
-3.757113448874511e-05
1.841370750741809
-3.20067121442274e-05
-3.099716285221983e-05
1.841365017406334
-2.498489573852315e-05
-2.424622389325451e-05
1.841360955904962
-1.78841200195734e-05
-1.738277397222987e-05
1.841358533307283
-1.074246554422234e-05
-1.045254929721295e-05
-3.582509202357559e-06
-3.487723410677252e-06
1.841446232406742
-5.564367773438438e-05
-5.519628250867365e-05
-1.841462922879796
1.84143086384683
-5.229285577847889e-05
-5.216074212199828e-05
1.841416983344143
-4.815227859382579e-05
-4.828945705246493e-05
1.841404694522701
-4.340357836958434e-05
-4.375028808136729e-05
1.84139405288906
-3.820372637205238e-05
-3.869226270252266e-05
1.841385079422816
-3.268232177841116e-05
-3.324259890393692e-05
1.841377772558222
-2.694164350923789e-05
-2.750616751749973e-05
1.841372118182053
-2.105871643926151e-05
-2.156678908096203e-05
1.841368097559438
-1.508874290976426e-05
-1.54898284313368e-05
1.841365693263617
-9.069388976669595e-06
-9.325651417890434e-06
-3.0255615373279e-06
-3.113617811512901e-06
1.841449583228716
-4.431128601442111e-05
-4.831948074723869e-05
-1.841465283878403
1.841435004424048
-4.17434013129318e-05
-4.587094397479063e-05
1.841421732044314
-3.85246269713495e-05
-4.26494579333081e-05
1.841409894374731
-3.479681812819216e-05
-3.879441307219604e-05
1.841399574293622
-3.068442378956375e-05
-3.44330604225012e-05
1.841390820101111
-2.629184723496957e-05
-2.967734061902689e-05
1.841383655485273
-2.17029995745912e-05
-2.462271852188286e-05
1.841378088155603
-1.698251660631196e-05
-1.934861296146751e-05
1.841374116913398
-1.217815448776183e-05
-1.392002679079274e-05
1.841371737091076
-7.323966826451778e-06
-8.390031828397607e-06
-2.443962831866987e-06
-2.802829510085379e-06
1.841452151113401
-3.308614388821628e-05
-4.29728765636072e-05
-1.841467046942761
1.841438223198359
-3.122758945650627e-05
-4.096164233402533e-05
1.841425459853175
-2.8870436169303e-05
-3.82310747923051e-05
1.841414006769057
-2.611884100602792e-05
-3.489867087327313e-05
1.841403966870208
-2.306527507791512e-05
-3.107455825381838e-05
1.841395408948731
-1.978829144675462e-05
-2.685831683812978e-05
1.841388375968253
-1.63519169817723e-05
-2.233745094999448e-05
1.841382892517722
-1.280631284263842e-05
-1.758724139997473e-05
1.84137897110104
-9.18936376550418e-06
-1.267168900831536e-05
1.841376617095058
-5.528905750942336e-06
-7.645277702517385e-06
-1.845364257914589e-06
-2.555319454166539e-06
1.841454009667835
-2.197731291201298e-05
-3.905725976010024e-05
-1.841468295225376
1.84144058035165
-2.077083389390339e-05
-3.735519323808675e-05
1.841428211448331
-1.922725061831452e-05
-3.497577492415104e-05
1.841417060334978
-1.741486105899543e-05
-3.202064666929521e-05
1.841407243853826
-1.539482725121388e-05
-2.858731831776334e-05
1.841398845323194
-1.321957511102319e-05
-2.476606246939436e-05
1.841391921572384
-1.093226356467663e-05
-2.063819294839675e-05
1.841386509466798
-8.567106313504989e-06
-1.627554981555846e-05
1.841382631559048
-6.150331385681026e-06
-1.174097866041328e-05
1.841380300636558
-3.701589969694193e-06
-7.089586492670324e-06
-1.235661325948229e-06
-2.370569768505048e-06
1.841455216146837
-1.096266235943734e-05
-3.649310077464819e-05
-1.841469092015917
1.841442123934952
-1.036927486969092e-05
-3.498822473448893e-05
1.841430023837908
-9.605977757232062e-06
-3.283475300923631e-05
1.841419080368798
-8.706563357088048e-06
-3.012404323499138e-05
1.841409419105988
-7.701452599883747e-06
-2.694531793170345e-05
1.841401132634751
-6.616863035057876e-06
-2.338264322001551e-05
1.841394286729663
-5.474506973291322e-06
-1.951311360759437e-05
1.841388926241716
-4.291716882066619e-06
-1.540612339998647e-05
1.841385080300483
-3.081895371835418e-06
-1.112356064858487e-05
1.841382766565214
-1.85519587135898e-06
-6.720741863342154e-06
-6.193584902724973e-07
-2.247905809915428e-06
1.841455809534345
-3.522514804186199e-05
-1.841469479773494
1.841442887232031
-3.381620118858562e-05
1.841430923252284
-3.177325220984341e-05
1.841420085479564
-2.918260546205239e-05
1.841410503695517
-2.612938063886168e-05
1.841402274990823
-2.269454327930021e-05
1.84139546951972
-1.895305309673745e-05
1.841390136063236
-1.497303776139081e-05
1.841386306999993
-1.081585139570752e-05
1.841384002402562
-6.536853908210899e-06
-2.186741015730348e-06
1.841424565393194
-9.264047009913794e-05
-0.0001006850243014277
-1.841446500038131
9.906474345335851e-05
1.841405215841242
-8.598902487122473e-05
-9.31549606306703e-05
9.156292683931197e-05
1.841388445900389
-7.82798019454134e-05
-8.453294898100968e-05
8.302784727159288e-05
1.841374164896347
-6.983366176924859e-05
-7.517920624446853e-05
7.380658636270633e-05
1.841362232802512
-6.0907002312083e-05
-6.537791723104671e-05
6.416929044331564e-05
1.841352488519135
-5.169404422786891e-05
-5.534028812905667e-05
5.431429108172892e-05
1.84134477091334
-4.233300040848861e-05
-4.521204724130494e-05
4.437692663155424e-05
1.841338933670851
-3.291432400096635e-05
-3.508328380061904e-05
3.444000595608775e-05
1.8413348552617
-2.348978695423307e-05
-2.499917071943042e-05
2.454459003060806e-05
1.84133244527679
-1.408163288640907e-05
-1.497069370812795e-05
1.470036225101989e-05
-4.691434765711682e-06
-4.984965588693716e-06
4.89530414365105e-06
1.841431216838423
-8.497938479343807e-05
-8.735192501165825e-05
-1.841451712316882
1.841412925064155
-7.919363780708368e-05
-8.121966190190996e-05
1.841396892040553
-7.236086047732846e-05
-7.404618956106147e-05
1.841383091555779
-6.477070558297253e-05
-6.613649441713463e-05
1.841371445760631
-5.666035440519211e-05
-5.77379603051494e-05
1.841361849562979
-4.82145970908548e-05
-4.904077054872406e-05
1.841354189589729
-3.956974326115767e-05
-4.018239653484855e-05
1.841348358207886
-3.081983917983078e-05
-3.125451678265279e-05
1.841344263415756
-2.202407034612719e-05
-2.231115209383461e-05
1.841341835474891
-1.321461339826875e-05
-1.337722334486777e-05
-4.404522481626915e-06
-4.457091831610832e-06
1.841437002585398
-7.644715190970775e-05
-7.554369338056314e-05
-1.841456114511352
1.841419757841486
-7.150544873724167e-05
-7.058466546792108e-05
1.841404482195459
-6.555996173547059e-05
-6.464792425018311e-05
1.841391201906955
-5.886625346572848e-05
-5.798904737908131e-05
1.841379891517931
-5.163834163493994e-05
-5.082105627884914e-05
1.841370494416807
-4.404722268389681e-05
-4.331307860638844e-05
1.841362939493814
-3.622298579571018e-05
-3.559262281780411e-05
1.841357153976724
-2.825927844669375e-05
-2.775020479197615e-05
1.841353072872694
-2.021915721204336e-05
-1.984534496646257e-05
1.841350645565813
-1.214164416112578e-05
-1.191324874496615e-05
-4.048563490075274e-06
-3.97174381159238e-06
1.841441944288579
-6.734165207663697e-05
-6.527805801452711e-05
-1.841459761804341
1.84142570332852
-6.319879715267461e-05
-6.128594148333565e-05
1.841411175903689
-5.812380610017365e-05
-5.638595317236636e-05
1.841398429818804
-5.233700174003208e-05
-5.079064793354114e-05
1.841387482636859
-4.602669129002491e-05
-4.468200212950326e-05
1.841378318653673
-3.934673191420206e-05
-3.820903553375397e-05
1.841370903201198
-3.241731774344069e-05
-3.148852989896011e-05
1.841365194097977
-2.532801732786519e-05
-2.460791371370373e-05
1.841361150385773
-1.814225820866272e-05
-1.762954382020814e-05
1.841358738646518
-1.090265871050997e-05
-1.059580808484576e-05
-3.636800769725306e-06
-3.534658850723132e-06
1.841446087143527
-5.789267435328859e-05
-5.652433828271525e-05
-1.841462726882142
1.841430778319548
-5.449117456499721e-05
-5.331495661562386e-05
1.841416962708038
-5.025290398073058e-05
-4.926836135155099e-05
1.841404740129242
-4.536308284563972e-05
-4.456060779465269e-05
1.841394162596268
-3.998292489228945e-05
-3.934648216104111e-05
1.841385248067823
-3.424675553902311e-05
-3.375658546849079e-05
1.841377992501593
-2.826190720028876e-05
-2.789701049734616e-05
1.841372379857078
-2.211065507844279e-05
-2.185094485351874e-05
1.841368389985258
-1.58535496112896e-05
-1.568161342278022e-05
1.841366004504439
-9.533637589175487e-06
-9.43609140393608e-06
-3.181204599257893e-06
-3.149643672228255e-06
1.841449488643317
-4.826690442798355e-05
-4.92219128211966e-05
-1.841465088781895
1.841435016590131
-4.554576362391106e-05
-4.663409938032655e-05
1.841421852529196
-4.210222852358633e-05
-4.327607229295227e-05
1.841410120287193
-3.808739101123416e-05
-3.929373954569826e-05
1.841399898765607
-3.363486270302483e-05
-3.481880581799397e-05
1.84139123291617
-2.885785467079349e-05
-2.996565345827465e-05
1.841384143753714
-2.384855598471724e-05
-2.483035967339938e-05
1.841378636962545
-1.867926986991685e-05
-1.949138635812841e-05
1.84137470989728
-1.340481027511934e-05
-1.401150520763394e-05
1.841372356937443
-8.065746039699434e-06
-8.440584938230194e-06
-2.692177650465532e-06
-2.81894503046787e-06
1.841452209784105
-3.857596187728542e-05
-4.329552877533343e-05
-1.84146692467764
1.841438460125273
-3.647717340406971e-05
-4.118987498458192e-05
1.841425867366677
-3.378500935014027e-05
-3.837391929373268e-05
1.841414572815536
-3.061783957079097e-05
-3.496941508984719e-05
1.841404675773646
-2.708174480352749e-05
-3.108913902392119e-05
1.841396242214882
-2.326786891295665e-05
-2.683377082566352e-05
1.84138931303985
-1.925158373203906e-05
-2.229051922535333e-05
1.841383911422153
-1.509308613531059e-05
-1.753318232302603e-05
1.841380048961536
-1.083905744650895e-05
-1.262332174509801e-05
1.841377730505815
-6.525066035532692e-06
-7.612257950029229e-06
-2.178457792221144e-06
-2.543636613471688e-06
1.841454308572569
-2.888584575664377e-05
-3.86673425936123e-05
-1.841468304221809
1.841441152289306
-2.735893679293225e-05
-3.692359536597863e-05
1.841429034536452
-2.537846271664153e-05
-3.451986945712817e-05
1.841418108910268
-2.30315726934549e-05
-3.155931340512749e-05
1.841408489649583
-2.03972026455508e-05
-2.813984244376394e-05
1.841400258500022
-1.754392164521335e-05
-2.435111788048326e-05
1.841393471537418
-1.452911598811485e-05
-2.02729596909362e-05
1.841388165450851
-1.139925592547942e-05
-1.597498844421154e-05
1.841384362952912
-8.190986984257113e-06
-1.151726435466573e-05
1.841382077114039
-4.932813506574376e-06
-6.951693253309748e-06
-1.647182523668995e-06
-2.323989336749501e-06
1.84145583548154
-1.922672910642338e-05
-3.526595823291047e-05
-1.841469285898921
1.841443132763384
-1.823177711667305e-05
-3.377963455264426e-05
1.841431381426473
-1.693056767011278e-05
-3.167233405068062e-05
1.841420743280315
-1.538036681481003e-05
-2.903370835660724e-05
1.841411342930575
-1.363344674606169e-05
-2.595072732627364e-05
1.84140327330568
-1.173557562569411e-05
-2.250478708605327e-05
1.84139660139748
-9.725386363833258e-06
-1.877001810410863e-05
1.8413913737198
-7.63446904852228e-06
-1.481266257625831e-05
1.841387621126398
-5.488024563596507e-06
-1.069135062676848e-05
1.841385362745023
-3.305928838681638e-06
-6.458091779882901e-06
-1.10407918927433e-06
-2.15980184159381e-06
1.841456830433522
-9.602524291486003e-06
-3.30328997318663e-05
-1.841469914838633
1.841444433972857
-9.112040423531198e-06
-3.171150058278723e-05
1.841432931627356
-8.467301514581559e-06
-2.979567475387491e-05
1.84142249020041
-7.696679223268643e-06
-2.736630597435153e-05
1.841413240801685
-6.826193326570753e-06
-2.450317562336968e-05
1.841405283494954
-5.878735413979148e-06
-2.128218033345969e-05
1.841398692314829
-4.873727785369881e-06
-1.77735959353333e-05
1.841393520164231
-3.82714414842913e-06
-1.404130140945114e-05
1.841389803222157
-2.751814400179633e-06
-1.014283181115475e-05
1.841387564594698
-1.657938518494878e-06
-6.130106808522487e-06
-5.537467582679647e-07
-2.050675729269078e-06
1.841457320917378
-3.192698195775277e-05
-1.841470221607125
1.841445078711745
-3.06860359842176e-05