/*--------------------------------*- C++ -*----------------------------------*\
  =========                 |
  \\      /  F ield         | OpenFOAM: The Open Source CFD Toolbox
   \\    /   O peration     | Website:  https://openfoam.org
    \\  /    A nd           | Version:  7
     \\/     M anipulation  |
\*---------------------------------------------------------------------------*/
FoamFile
{
    version     2.0;
    format      ascii;
    class       volVectorField;
    location    "0";
    object      U;
}
// * * * * * * * * * * * * * * * * * * * * * * * * * * * * * * * * * * * * * //

dimensions      [0 1 -1 0 0 0 0];

internalField   nonuniform List<vector> 
12683
(
(1.0000125453827 -3.820574842445884e-06 -3.752247514130764e-06)
(1.0000208007082 -1.081134094202494e-05 -9.991955483300137e-06)
(1.000020007620811 -3.594146189964387e-06 -3.32247889363315e-06)
(1.000029497852229 -1.666193581841907e-05 -1.472626355950886e-05)
(1.000027791086062 -9.958226613051642e-06 -8.809006144527868e-06)
(1.000026950869832 -3.312621702196509e-06 -2.931627409973967e-06)
(1.000038609416811 -2.108268511589886e-05 -1.815172145045854e-05)
(1.000035913589741 -1.500443360400747e-05 -1.294433362097882e-05)
(1.000034150022316 -8.978005255503324e-06 -7.755921116935149e-06)
(1.000033278469121 -2.988282020913033e-06 -2.583308787041509e-06)
(1.000048038999056 -2.384383602725918e-05 -2.045901520929794e-05)
(1.000044332473223 -1.851059345877866e-05 -1.594062655749248e-05)
(1.000041602532089 -1.319448558191758e-05 -1.139459020912955e-05)
(1.000039807237644 -7.903248147778803e-06 -6.838251727832363e-06)
(1.000038917157106 -2.631927706136534e-06 -2.279480442926682e-06)
(1.000057638364088 -2.479510030329894e-05 -2.184708240886723e-05)
(1.000052953800917 -2.031469913802932e-05 -1.800250692829523e-05)
(1.000049258767256 -1.579950129187787e-05 -1.406826805471372e-05)
(1.000046520935052 -1.127740339379475e-05 -1.007882689653839e-05)
(1.000044712580192 -6.761123307219537e-06 -6.057760743777266e-06)
(1.000043813644981 -2.252608459676803e-06 -2.020841678702414e-06)
(1.000061652135856 -2.032913839299323e-05 -1.933825757377535e-05)
(1.000057034598068 -1.668753277214809e-05 -1.598886855189164e-05)
(1.000053369768968 -1.299847184737499e-05 -1.25288644723942e-05)
(1.000050640910074 -9.288821202661453e-06 -8.994580573676119e-06)
(1.000048832032579 -5.573221606007554e-06 -5.413619056875186e-06)
(1.000047930888875 -1.857553810774834e-06 -1.807222387358798e-06)
(1.00007029781284 -1.854957121792534e-05 -2.016447093021886e-05)
(1.000064831730996 -1.581967368233718e-05 -1.736866588881578e-05)
(1.000060284467463 -1.30058985348813e-05 -1.440315954061839e-05)
(1.000056657478826 -1.014332272741829e-05 -1.131357300721964e-05)
(1.000053946185293 -7.255300343385212e-06 -8.136989357847217e-06)
(1.000052143847584 -4.355853087946923e-06 -4.903480500927004e-06)
(1.000051244420397 -1.452260826147524e-06 -1.637934518054701e-06)
(1.000078787547166 -1.505576390903693e-05 -2.070467455462659e-05)
(1.000072562804245 -1.322763364542987e-05 -1.842384322032622e-05)
(1.00006719580854 -1.12965579036579e-05 -1.591513205402155e-05)
(1.000062710949024 -9.298114416250777e-06 -1.323007803993007e-05)
(1.000059120367159 -7.258431722254131e-06 -1.041274153330409e-05)
(1.000056428379713 -5.195480291136267e-06 -7.500347334460384e-06)
(1.000054635072096 -3.120681569731897e-06 -4.524391166091401e-06)
(1.000053739002789 -1.040696349012366e-06 -1.512071065913002e-06)
(1.00008707397262 -1.000415054346861e-05 -2.118325632376594e-05)
(1.000080177822616 -9.010943146682298e-06 -1.93733909692557e-05)
(1.000074057018846 -7.925216114885159e-06 -1.728002613499144e-05)
(1.000068761250226 -6.774495822935054e-06 -1.495799813311389e-05)
(1.000064322593645 -5.580391126364252e-06 -1.245626014984005e-05)
(1.000060760112951 -4.358991541409631e-06 -9.817662408827196e-06)
(1.000058083935446 -3.121585869723038e-06 -7.079332078164848e-06)
(1.000056298631526 -1.875586761407566e-06 -4.27351397719318e-06)
(1.000055405798316 -6.255772550812415e-07 -1.428745429453571e-06)
(1.000095190490615 -3.614435229138713e-06 -2.181632002922361e-05)
(1.000087688798059 -3.32825106137261e-06 -2.043460371286156e-05)
(1.000080866481595 -2.999609789727987e-06 -1.871463839747672e-05)
(1.000074799251569 -2.639592082495729e-06 -1.671323261095144e-05)
(1.000069540633528 -2.257377066444887e-06 -1.448311885100383e-05)
(1.000065126453305 -1.860208780691165e-06 -1.207192448254844e-05)
(1.000061579172416 -1.453517406102483e-06 -9.521846187808501e-06)
(1.000058911784493 -1.041149315233133e-06 -6.869906251334791e-06)
(1.00005713108071 -6.256683588234574e-07 -4.148664880769756e-06)
(1.000056240166806 -2.087001309343178e-07 -1.387269196386707e-06)
(1.00007902272376 -7.363729432134331e-05 -7.799315655481349e-05)
(1.000066219496798 -6.720128092263561e-05 -7.109851640529899e-05)
(1.000055406379174 -6.02194378662252e-05 -6.364503625535959e-05)
(1.000046423959847 -5.29542556087486e-05 -5.591145020238528e-05)
(1.000039084638372 -4.559474073523115e-05 -4.809729059201006e-05)
(1.000033196967847 -3.82661078280774e-05 -4.033357657134021e-05)
(1.000028581976596 -3.10409586564121e-05 -3.269499152934872e-05)
(1.000025083263794 -2.395032274437013e-05 -2.521181960427061e-05)
(1.000022572670785 -1.699370793527899e-05 -1.788076060012675e-05)
(1.000020953077396 -1.014785963935653e-05 -1.067431027348431e-05)
(1.000020159525869 -3.374275288547747e-06 -3.548778384972755e-06)
(1.000084549975606 -6.728127556338583e-05 -6.652925337400315e-05)
(1.000072487260697 -6.174703530490756e-05 -6.106321180199297e-05)
(1.00006212628282 -5.561839994244185e-05 -5.500950557889733e-05)
(1.000053376324499 -4.913654024316171e-05 -4.860570779913185e-05)
(1.000046112949849 -4.248186860783359e-05 -4.20294716347954e-05)
(1.000040199260172 -3.578010005152121e-05 -3.540460495626823e-05)
(1.000035501133549 -2.911039291555525e-05 -2.880914806088758e-05)
(1.000031897473772 -2.251407541973581e-05 -2.228399648868238e-05)
(1.000029286668057 -1.600307553438729e-05 -1.584120198602882e-05)
(1.000027590377041 -9.567637487910772e-06 -9.471558836437784e-06)
(1.000026755582807 -3.183231236461e-06 -3.151385069456144e-06)
(1.000089193104641 -6.035155101007533e-05 -5.660137225458633e-05)
(1.000077882372418 -5.567656291448969e-05 -5.229581729060429e-05)
(1.000068016874236 -5.039166400137553e-05 -4.740301085809382e-05)
(1.000059560491183 -4.471242736307418e-05 -4.212217450759825e-05)
(1.000052441078563 -3.88055968358433e-05 -3.66082957760734e-05)
(1.00004656844354 -3.279231946867162e-05 -3.097500530319072e-05)
(1.000041848001228 -2.675372372176284e-05 -2.529959803350847e-05)
(1.000038190581176 -2.0737549850371e-05 -1.962901806196192e-05)
(1.000035519108717 -1.476499237124699e-05 -1.398605230679141e-05)
(1.000033772921694 -8.837290224818299e-06 -8.375308409877381e-06)
(1.000032910394594 -2.94188014013995e-06 -2.788806357270862e-06)
(1.000093026520276 -5.311342380727776e-05 -4.814783230475586e-05)
(1.000082447147706 -4.923140709509917e-05 -4.476942305304654e-05)
(1.000073090418373 -4.475337856263254e-05 -4.082334462103086e-05)
(1.000064962391666 -3.986709051128437e-05 -3.647463080969093e-05)
(1.000058033057742 -3.472208923394444e-05 -3.185646684394959e-05)
(1.000052251133286 -2.943090363754116e-05 -2.707097206350319e-05)
(1.000047555903168 -2.407259313554981e-05 -2.219202591691171e-05)
(1.000043886205123 -1.869758773688672e-05 -1.726923994458794e-05)
(1.000041186927683 -1.333307225336663e-05 -1.23324411063219e-05)
(1.000039413489272 -7.98845340430727e-06 -7.396267634027443e-06)
(1.000038534753166 -2.660676207806282e-06 -2.464680581358159e-06)
(1.000096137696479 -4.576060205969909e-05 -4.107404380380105e-05)
(1.000086242417662 -4.259462968157618e-05 -3.842474590538408e-05)
(1.000077381190819 -3.887124707926861e-05 -3.523821665941521e-05)
(1.000069591780512 -3.474978147026492e-05 -3.165013312155401e-05)
(1.000062877265437 -3.036043135925434e-05 -2.777384484847748e-05)
(1.000057217939637 -2.580410721104932e-05 -2.369986488159887e-05)
(1.000052581317129 -2.115446807101902e-05 -1.94971879524205e-05)
(1.000048930102058 -1.646131134298408e-05 -1.521577383714623e-05)
(1.000046228243049 -1.17546845597517e-05 -1.08896868682803e-05)
(1.00004444531774 -7.049293974180728e-06 -6.54055494551938e-06)
(1.000043559524206 -2.348963503314682e-06 -2.18113236801782e-06)
(1.000098615956586 -3.842341839818798e-05 -3.527105301726096e-05)
(1.000089336502687 -3.589556325387686e-05 -3.318563282743856e-05)
(1.000080935266583 -3.286866616347679e-05 -3.059781016135748e-05)
(1.000073473207385 -2.94741508807761e-05 -2.761890146385516e-05)
(1.000066978732003 -2.582181403622821e-05 -2.434503015901348e-05)
(1.000061457096573 -2.199889084970831e-05 -2.085588392257849e-05)
(1.000056898699035 -1.807104383216274e-05 -1.721503833260189e-05)
(1.000053285988634 -1.408463459767936e-05 -1.347137087331928e-05)
(1.000050598945052 -1.006977005167537e-05 -9.66118670214796e-06)
(1.000048819210329 -6.043754716264277e-06 -5.810762383475032e-06)
(1.00004793301065 -2.014717118850899e-06 -1.939116106380089e-06)
(1.000100544883243 -3.117912850308015e-05 -3.062916821971988e-05)
(1.000091797169897 -2.921708101680561e-05 -2.897100691545669e-05)
(1.000083802603192 -2.682950938447351e-05 -2.684488239979992e-05)
(1.000076638632639 -2.412111536348633e-05 -2.43425916169326e-05)
(1.000070352525468 -2.118101618353199e-05 -2.154594709896663e-05)
(1.000064968709842 -1.808147996060695e-05 -1.852516099870572e-05)
(1.000060495573382 -1.48782515034117e-05 -1.533853958114181e-05)
(1.000056931375838 -1.161200389914352e-05 -1.2033159613234e-05)
(1.00005426912293 -8.310520454135692e-06 -8.646244205276623e-06)
(1.000052500370672 -4.991310509296527e-06 -5.207001790166877e-06)
(1.000051617996041 -1.664453508028572e-06 -1.738756064641023e-06)
(1.000101997583944 -2.406252765383739e-05 -2.704744701551863e-05)
(1.000093686121806 -2.260382812901211e-05 -2.570361158416044e-05)
(1.000086031232236 -2.080425119535842e-05 -2.392248375314862e-05)
(1.000079121700586 -1.874322386983928e-05 -2.178086290177663e-05)
(1.000073018367405 -1.648938051901369e-05 -1.934924724566058e-05)
(1.000067759861253 -1.409929347843225e-05 -1.669006215132548e-05)
(1.000063368175097 -1.161743902085236e-05 -1.385697315867124e-05)
(1.000059853719684 -9.077073820470026e-06 -1.08950721197376e-05)
(1.000057219638442 -6.501734385280174e-06 -7.841719470731756e-06)
(1.000055465277275 -3.90713194677763e-06 -4.727859898903522e-06)
(1.000054588774667 -1.303276824520594e-06 -1.57965882824352e-06)
(1.000103034008235 -1.707589455154999e-05 -2.443997225969466e-05)
(1.000095055446355 -1.607044074297119e-05 -2.331611906376404e-05)
(1.000087663207451 -1.481654125721137e-05 -2.177959358733586e-05)
(1.000080953503315 -1.336975566907402e-05 -1.989635259675851e-05)
(1.00007499645586 -1.177864904383847e-05 -1.772853541249654e-05)
(1.00006984065134 -1.00837439689974e-05 -1.533264678442881e-05)
(1.000065517793038 -8.317348327700883e-06 -1.275865788340628e-05)
(1.000062047080474 -6.50404748665745e-06 -1.004987642513047e-05)
(1.000059439064804 -4.661668083733757e-06 -7.243430762443629e-06)
(1.000057698828233 -2.802553098596728e-06 -4.371217837570451e-06)
(1.000056828404812 -9.350277330802587e-07 -1.461182738236246e-06)
(1.000103699610833 -1.019784155451487e-05 -2.273979264189037e-05)
(1.000095945475099 -9.609247492151888e-06 -2.175520196689987e-05)
(1.000088731917309 -8.869704220104994e-06 -2.037504945212582e-05)
(1.0000821595928 -8.012050974578605e-06 -1.865827195175321e-05)
(1.000076304379106 -7.065216114292716e-06 -1.666151126895472e-05)
(1.00007122116197 -6.05353551309196e-06 -1.443730300481207e-05)
(1.000066947871579 -4.996591616503232e-06 -1.203306460330874e-05)
(1.000063509399928 -3.909456232432351e-06 -9.490782421499268e-06)
(1.00006092113283 -2.80322543674156e-06 -6.84727569669192e-06)
(1.000059191917625 -1.685752347845175e-06 -4.134912065245627e-06)
(1.000058326355498 -5.625047614524699e-07 -1.382656100368866e-06)
(1.000104024804603 -3.391032749864316e-06 -2.190125259349241e-05)
(1.000096383583689 -3.197288234628339e-06 -2.098410054118824e-05)
(1.000089260403967 -2.95292416013579e-06 -1.968013653141935e-05)
(1.000082757991422 -2.668801575779529e-06 -1.80448522991052e-05)
(1.000076954971322 -2.354525538906925e-06 -1.61321670666959e-05)
(1.000071909275837 -2.018209359656319e-06 -1.399262776425737e-05)
(1.000067661872319 -1.666411670905874e-06 -1.167235028253364e-05)
(1.000064240446654 -1.304208620066501e-06 -9.212622422002837e-06)
(1.000061662768689 -9.35364945015345e-07 -6.650063670519874e-06)
(1.000059939548908 -5.625727613181074e-07 -4.01722833232457e-06)
(1.000059076661922 -1.87733662002622e-07 -1.343540810006054e-06)
(1.000085064674537 -6.193213577891319e-05 -6.96467055660387e-05)
(1.000073055613014 -5.694783381898973e-05 -6.388986347072302e-05)
(1.000062722163944 -5.139078584741367e-05 -5.752241211183097e-05)
(1.000053980348146 -4.548106308065425e-05 -5.079541146273538e-05)
(1.000046711875015 -3.938489422204192e-05 -4.389646052920401e-05)
(1.000040785117343 -3.321971529037123e-05 -3.695597479086451e-05)
(1.000036070260785 -2.706120174126784e-05 -3.005565965529388e-05)
(1.000032449579754 -2.095093218933003e-05 -2.323761585150835e-05)
(1.000029823981408 -1.490387349930447e-05 -1.651315000685419e-05)
(1.00002811689966 -8.915294806244678e-06 -9.870848965985613e-06)
(1.000027276438808 -2.967004157480627e-06 -3.283816011293812e-06)
(1.000089297624428 -5.699279295896373e-05 -5.983357576435722e-05)
(1.000078008162886 -5.265924276466356e-05 -5.521892897801973e-05)
(1.000068158219568 -4.773239813496729e-05 -4.999572340503733e-05)
(1.000059712819847 -4.241359601218738e-05 -4.437691953478454e-05)
(1.000052600873178 -3.685965179618637e-05 -3.852746240540224e-05)
(1.000046733098541 -3.118562790552149e-05 -3.256745105766483e-05)
(1.000042015663297 -2.546981450750739e-05 -2.657761746782651e-05)
(1.000038359992486 -1.975973054299617e-05 -2.060584257748698e-05)
(1.000035689462504 -1.407836629558367e-05 -1.467388301297073e-05)
(1.000033943732864 -8.430231868911001e-06 -8.783852618103709e-06)
(1.000033081384142 -2.807032304131846e-06 -2.924276311656296e-06)
(1.000092893685133 -5.14664799916076e-05 -5.125524569214201e-05)
(1.000082316007837 -4.776679719810528e-05 -4.758092702839021e-05)
(1.000072967810696 -4.347749849657455e-05 -4.331804268337136e-05)
(1.000064853094485 -3.877825727203464e-05 -3.864486725745449e-05)
(1.000057939843121 -3.381294837596854e-05 -3.370421897054129e-05)
(1.000052174954632 -2.86906677153502e-05 -2.860450531246531e-05)
(1.000047496158147 -2.34889992151423e-05 -2.34229794285333e-05)
(1.000043841027967 -1.825852356959859e-05 -1.821021245146392e-05)
(1.000041153480083 -1.302786205064604e-05 -1.299508603624933e-05)
(1.000039388233652 -7.808817867660385e-06 -7.789874727558108e-06)
(1.000038513702986 -2.60139205381089e-06 -2.595201039823949e-06)
(1.000095894408312 -4.557351170357203e-05 -4.388719279526706e-05)
(1.000085997144381 -4.247062253693144e-05 -4.097372029323288e-05)
(1.000077146759493 -3.880351118628213e-05 -3.75028698083493e-05)
(1.000069377369968 -3.472870332498939e-05 -3.36224111552319e-05)
(1.000062688462736 -3.037469847058555e-05 -2.945459420695558e-05)
(1.000057057047702 -2.584176023145199e-05 -2.509583138049503e-05)
(1.000052447807442 -2.120384078038811e-05 -2.061837026012795e-05)
(1.00004882112965 -1.651182502592205e-05 -1.607320875846021e-05)
(1.000046139168206 -1.17974836858224e-05 -1.149369023202978e-05)
(1.000044370202861 -7.077724881624828e-06 -6.899399739811047e-06)
(1.000043491594064 -2.358905389183777e-06 -2.300136929579008e-06)
(1.00009835400406 -3.948212836328619e-05 -3.767299973378462e-05)
(1.000089086008352 -3.692825816024716e-05 -3.536497418239337e-05)
(1.000080709729908 -3.385399698395235e-05 -3.253626790489239e-05)
(1.0000732819072 -3.039237527841942e-05 -2.930864880140737e-05)
(1.000066826786215 -2.66550496636657e-05 -2.578603026961139e-05)
(1.000061345812322 -2.273132533959416e-05 -2.205334387719738e-05)
(1.000056826093352 -1.868909888612609e-05 -1.817713080496677e-05)
(1.000053247385061 -1.45770862061479e-05 -1.420730814236963e-05)
(1.000050587580227 -1.04278292345533e-05 -1.01796727550271e-05)
(1.000048826811949 -6.261117709828228e-06 -6.118821955776355e-06)
(1.000047950333254 -2.087593071366382e-06 -2.041281583152311e-06)
(1.000100330961435 -3.331247814411444e-05 -3.253946402690344e-05)
(1.000091625275759 -3.125649881084942e-05 -3.070475413524673e-05)
(1.000083682642375 -2.873890838108788e-05 -2.838706950424457e-05)
(1.000076576317288 -2.586968774159577e-05 -2.568667524261854e-05)
(1.000070349512675 -2.274295178723809e-05 -2.26917524788303e-05)
(1.00006502299848 -1.943558556797393e-05 -1.947684080545323e-05)
(1.000060602046576 -1.60075276107958e-05 -1.610272344200771e-05)
(1.000057082399302 -1.250322227441421e-05 -1.2617373390164e-05)
(1.000054455136703 -8.953837778225354e-06 -9.057628117537024e-06)
(1.000052710439024 -5.379943253518067e-06 -5.451333898037771e-06)
(1.000051840304845 -1.794433002586996e-06 -1.819770485819174e-06)
(1.000101882016151 -2.714294274213257e-05 -2.840828080239348e-05)
(1.000093659578115 -2.553570774465033e-05 -2.693566087674767e-05)
(1.000086096540977 -2.353726314716552e-05 -2.501539964122609e-05)
(1.000079277863794 -2.123545250123815e-05 -2.27305500786755e-05)
(1.000073260888389 -1.87066959490596e-05 -2.015631465435158e-05)
(1.000068081236499 -1.601453727318668e-05 -1.735829890804196e-05)
(1.000063758456645 -1.320953669948808e-05 -1.439195784518483e-05)
(1.000060301074893 -1.033016242385688e-05 -1.130297420405969e-05)
(1.000057710859248 -7.404372998191796e-06 -8.128323258396868e-06)
(1.000055986216724 -4.451644032744145e-06 -4.897817507490516e-06)
(1.000055124709511 -1.485258772669303e-06 -1.635967061376003e-06)
(1.000103058092841 -2.101740553390581e-05 -2.520462416348993e-05)
(1.000095230955353 -1.981539835549402e-05 -2.400057795304298e-05)
(1.000087982897617 -1.830124559622762e-05 -2.237942898997152e-05)
(1.000081406884486 -1.654175226489595e-05 -2.04110006539288e-05)
(1.000075570427902 -1.459582340135714e-05 -1.816027425916989e-05)
(1.00007052015773 -1.25131411035401e-05 -1.568559267023371e-05)
(1.000066286421425 -1.033387820480415e-05 -1.303784899131401e-05)
(1.000062887563002 -8.089207996913313e-06 -1.026048555986273e-05)
(1.000060333655094 -5.802386420224595e-06 -7.390125409086168e-06)
(1.000058629553249 -3.490219708516464e-06 -4.457671504920463e-06)
(1.00005777720765 -1.164774166621724e-06 -1.489733468241369e-06)
(1.000103901759797 -1.495257662909804e-05 -2.286316324034001e-05)
(1.000096375738052 -1.41202615152564e-05 -2.184832896030418e-05)
(1.000089370187068 -1.306100977422375e-05 -2.044048123283227e-05)
(1.000082983285989 -1.182165185386406e-05 -1.869986948638264e-05)
(1.00007728949955 -1.044390709799628e-05 -1.66839376441368e-05)
(1.000072343181696 -8.963343073879359e-06 -1.444554446161658e-05)
(1.000068182389752 -7.409066269078759e-06 -1.203200992934835e-05)
(1.000064832566677 -5.803988820574942e-06 -9.484873709229829e-06)
(1.000062309847537 -4.165520668053132e-06 -6.840233453690667e-06)
(1.000060623828978 -2.506557027586639e-06 -4.129531298538454e-06)
(1.000059779703386 -8.366578094110204e-07 -1.38066730885623e-06)
(1.000104445751091 -8.944907078023119e-06 -2.133208715899681e-05)
(1.000097122522208 -8.45615022459676e-06 -2.04376225853009e-05)
(1.000090281507279 -7.829712877842421e-06 -1.916671757414538e-05)
(1.000084023987162 -7.093317839124686e-06 -1.757341570562935e-05)
(1.000078428736684 -6.271834612739219e-06 -1.571020905723741e-05)
(1.000073554998558 -5.386618981322284e-06 -1.362629308387928e-05)
(1.000069445775677 -4.455286825122018e-06 -1.136654212581087e-05)
(1.000066131108603 -3.491835609142335e-06 -8.971127408403995e-06)
(1.000063631086887 -2.50702709563448e-06 -6.475675428023626e-06)
(1.000061958416108 -1.508954773804715e-06 -3.911856488236775e-06)
(1.000061120422487 -5.037338294047662e-07 -1.30829552347915e-06)
(1.000104712182735 -2.97692986684585e-06 -2.057565198057063e-05)
(1.000097490932251 -2.815794466926141e-06 -1.973965215213846e-05)
(1.000090733019452 -2.608519822006994e-06 -1.853564214722999e-05)
(1.000084541164254 -2.364282292931982e-06 -1.70146177137508e-05)
(1.000078996198408 -2.091342729866462e-06 -1.522661915404074e-05)
(1.000074159729483 -1.796820567553034e-06 -1.321901027939725e-05)
(1.000070077173124 -1.486611805403819e-06 -1.103542523711583e-05)
(1.000066780826407 -1.16542312083561e-06 -8.715322280036951e-06)
(1.000064292728372 -8.368940018346342e-07 -6.294056805532142e-06)
(1.000062627122244 -5.037816354825864e-07 -3.803374159066961e-06)
(1.000061792391989 -1.681878658929619e-07 -1.27222111998352e-06)
(1.000089987595577 -5.205788126641067e-05 -6.099761839692892e-05)
(1.00007877680073 -4.821453861271652e-05 -5.627406712087752e-05)
(1.000068968490182 -4.380337025984911e-05 -5.093094182574257e-05)
(1.000060536552558 -3.900575703749785e-05 -4.51874505231859e-05)
(1.00005341834064 -3.396468294650914e-05 -3.921346074753381e-05)
(1.000047532083038 -2.878674622964406e-05 -3.313254661358886e-05)
(1.000042790276925 -2.354623018260161e-05 -2.702749810960363e-05)
(1.000039109434502 -1.829018442965872e-05 -2.094697269810079e-05)
(1.000036416822202 -1.304381788812505e-05 -1.491242200378065e-05)
(1.000034654887606 -7.81580040369839e-06 -8.92480527702333e-06)
(1.00003378400031 -2.603295479697645e-06 -2.970886727508034e-06)
(1.000093209210282 -4.823297783720821e-05 -5.274513123765256e-05)
(1.000082676464929 -4.485563684798914e-05 -4.891941890072826e-05)
(1.000073355506887 -4.090673160617579e-05 -4.449556703268619e-05)
(1.000065254166248 -3.655204803099092e-05 -3.96592075303055e-05)
(1.000058344185057 -3.192561842224616e-05 -3.455861206074367e-05)
(1.000052575885285 -2.713036380637756e-05 -2.930576855265492e-05)
(1.000047889942332 -2.224083125178863e-05 -2.397979841299147e-05)
(1.000044226341601 -1.730712189823382e-05 -1.863166698940789e-05)
(1.000041530871944 -1.235936642208064e-05 -1.328944969961908e-05)
(1.000039759612554 -7.412342741097903e-06 -7.963696679477772e-06)
(1.000038881859198 -2.470022873199715e-06 -2.652663138684359e-06)
(1.000095975763346 -4.383565436335426e-05 -4.546886654317338e-05)
(1.000086103046962 -4.092259677712303e-05 -4.239165554758178e-05)
(1.000077272078999 -3.745263706240969e-05 -3.874797990437599e-05)
(1.000069517665742 -3.357382939884387e-05 -3.469329270316931e-05)
(1.000062840024864 -2.940869762958924e-05 -3.035544931417894e-05)
(1.000057216870208 -2.505385623193692e-05 -2.583446652704148e-05)
(1.000052613518833 -2.058164625650853e-05 -2.120439598482507e-05)
(1.000048990899332 -1.604303625203041e-05 -1.65165082938276e-05)
(1.000046311601359 -1.147122127657218e-05 -1.180318449499763e-05)
(1.000044544231155 -6.885535457939098e-06 -7.082109376356486e-06)
(1.000043666365927 -2.295450065904912e-06 -2.360529688622685e-06)
(1.000098308120054 -3.904609763622136e-05 -3.916916243886833e-05)
(1.000089059482227 -3.657917021810811e-05 -3.67048665231849e-05)
(1.000080704274264 -3.358654039964772e-05 -3.371151795638202e-05)
(1.000073298105681 -3.019743568287325e-05 -3.031822336335691e-05)
(1.000066864158225 -2.652110807876217e-05 -2.663424379524124e-05)
(1.000061402936659 -2.264577215179572e-05 -2.274793888678173e-05)
(1.000056900762312 -1.86393927754043e-05 -1.872754901376525e-05)
(1.00005333676658 -1.455172255947081e-05 -1.462321867295997e-05)
(1.000050688372738 -1.041710849786418e-05 -1.046978386701078e-05)
(1.000048935383764 -6.257720176349387e-06 -6.289978552297002e-06)
(1.00004806284472 -2.08697391337838e-06 -2.097836598604317e-06)
(1.000100238291452 -3.40075972652973e-05 -3.381734209733248e-05)
(1.000091562604198 -3.19589147316794e-05 -3.184625114487508e-05)
(1.000083653813534 -2.942988247886625e-05 -2.938540259643939e-05)
(1.000076583098063 -2.653062641766114e-05 -2.654152703568413e-05)
(1.000070391688396 -2.335605956874776e-05 -2.340751737781883e-05)
(1.000065098585512 -1.998443840124813e-05 -2.006092123997135e-05)
(1.000060707568426 -1.647754815282301e-05 -1.656398625656393e-05)
(1.000057213183609 -1.288205328274748e-05 -1.296482871003007e-05)
(1.000054605603742 -9.231620226969837e-06 -9.299358954846633e-06)
(1.00005287436574 -5.549511495173196e-06 -5.593680195199685e-06)
(1.000052011060017 -1.851441115127559e-06 -1.866759494065685e-06)
(1.000101803352537 -2.882781664981254e-05 -2.936761743452756e-05)
(1.000093637197014 -2.716520304467617e-05 -2.778604917452732e-05)
(1.000086132562578 -2.50791954605372e-05 -2.575280512639988e-05)
(1.000079371928591 -2.266112005995864e-05 -2.335613277211071e-05)
(1.000073410346241 -1.999103714872768e-05 -2.067498801539973e-05)
(1.000068281448075 -1.713616570352786e-05 -1.777732097887059e-05)
(1.00006400314743 -1.415068612351451e-05 -1.471964827643741e-05)
(1.000060582694506 -1.107657444718392e-05 -1.154761184224427e-05)
(1.000058020914526 -7.945158072602453e-06 -8.297250085960562e-06)
(1.000056315562876 -4.779142966187341e-06 -4.996753971161904e-06)
(1.000055463797332 -1.594927078432025e-06 -1.668533303304118e-06)
(1.00010304082366 -2.358233007227715e-05 -2.576672142822333e-05)
(1.000095311225387 -2.227346997080377e-05 -2.448585533232337e-05)
(1.000088157896519 -2.060731028067866e-05 -2.278782484510518e-05)
(1.000081671256375 -1.865702382584008e-05 -2.07460766705745e-05)
(1.000075916642752 -1.648769945620755e-05 -1.842811859230772e-05)
(1.000070938936538 -1.415483010710745e-05 -1.589375009381903e-05)
(1.000066767159682 -1.170391725067092e-05 -1.319434811840864e-05)
(1.00006341871166 -9.170941503418029e-06 -1.037300492376375e-05)
(1.000060903035224 -6.583464077581599e-06 -7.465316773720751e-06)
(1.000059224596733 -3.962160173603303e-06 -4.500644000182509e-06)
(1.000058385130059 -1.322629454107401e-06 -1.503693599248932e-06)
(1.000103985370892 -1.831937017645489e-05 -2.296131163796804e-05)
(1.000096612216807 -1.73348057862549e-05 -2.190522310312624e-05)
(1.000089749008723 -1.606594284572099e-05 -2.046120307015326e-05)
(1.000083491539416 -1.456859039934254e-05 -1.869130807830011e-05)
(1.00007791253996 -1.28929900440486e-05 -1.665405019619508e-05)
(1.000073065230281 -1.108251208723012e-05 -1.44026535146099e-05)
(1.000068987036033 -9.173207251593518e-06 -1.198417799276181e-05)
(1.000065703147679 -7.194041165057881e-06 -9.4393771436774e-06)
(1.000063229695856 -5.167641373597461e-06 -6.803143129341415e-06)
(1.000061576397499 -3.111406944623894e-06 -4.105398081326379e-06)
(1.00006074858696 -1.038859223711551e-06 -1.372305601442196e-06)
(1.000104666581765 -1.306505265478255e-05 -2.090340506053421e-05)
(1.000097564652719 -1.238023696883115e-05 -2.000667031614318e-05)
(1.000090924111905 -1.148909014812727e-05 -1.874478064917149e-05)
(1.000084844209175 -1.043082840095122e-05 -1.717153735103504e-05)
(1.000079402721064 -9.241081513827316e-06 -1.533882533738548e-05)
(1.000074658719331 -7.950897967805379e-06 -1.329492643746972e-05)
(1.000070655630604 -6.586351931778972e-06 -1.10835593585171e-05)
(1.000067424277538 -5.16864082946031e-06 -8.743559735198494e-06)
(1.000064985669444 -3.714559174319388e-06 -6.309092610021325e-06)
(1.000063353378884 -2.23724468858246e-06 -3.810284508160014e-06)
(1.000062535396227 -7.471098617044392e-07 -1.274167023334417e-06)
(1.000105107552348 -7.828633463812999e-06 -1.955418764245701e-05)
(1.000098188179314 -7.425260799554123e-06 -1.875929774548386e-05)
(1.000091698417291 -6.896835166533365e-06 -1.761480780637632e-05)
(1.000085739548049 -6.266611639650651e-06 -1.616916071712612e-05)
(1.000080392470393 -5.555850534966336e-06 -1.44698888123643e-05)
(1.000075719959863 -4.783196538320771e-06 -1.256198162441493e-05)
(1.000071769293172 -3.964414614105462e-06 -1.04868870589483e-05)
(1.000068574940436 -3.112420823035685e-06 -8.282088225655813e-06)
(1.000066161091997 -2.237542479230835e-06 -5.981172879301741e-06)
(1.000064543846813 -1.347946739233282e-06 -3.614301184964853e-06)
(1.000063732941511 -4.501854943757102e-07 -1.208976063891222e-06)
(1.000105324047607 -2.60758202742939e-06 -1.888653656239167e-05)
(1.000098496451016 -2.474390287424419e-06 -1.814125420485097e-05)
(1.000092082761065 -2.299310325080343e-06 -1.7054253236902e-05)
(1.000086185193808 -2.090046513215173e-06 -1.567134242411299e-05)
(1.000080886136165 -1.853664567129136e-06 -1.403789914989773e-05)
(1.000076250155251 -1.596380741413859e-06 -1.219726908503329e-05)
(1.000072326406319 -1.323469179099044e-06 -1.01897529644068e-05)
(1.000069151149673 -1.039267594028851e-06 -8.052136313394102e-06)
(1.000066750143528 -7.472599428778219e-07 -5.817690963684548e-06)
(1.000065140735868 -4.502160632119761e-07 -3.516563300379108e-06)
(1.000064333528461 -1.503708869434547e-07 -1.176459661501873e-06)
(1.000093930573392 -4.387132320057149e-05 -5.229905046639983e-05)
(1.000083481813747 -4.091073944586795e-05 -4.849176508865263e-05)
(1.000074204731135 -3.740617352966392e-05 -4.409138874577177e-05)
(1.00006611631069 -3.350544986464801e-05 -3.928377023276736e-05)
(1.000059197311207 -2.932976273634664e-05 -3.42174662337312e-05)
(1.000053406292932 -2.497381756573629e-05 -2.90046143138213e-05)
(1.000048691033768 -2.050788068660299e-05 -2.372422211636541e-05)
(1.00004499733715 -1.598096335168153e-05 -1.842682031557174e-05)
(1.000042275511952 -1.142457643473248e-05 -1.313972814607619e-05)
(1.000040484918339 -6.856690562495668e-06 -7.872457896861002e-06)
(1.000039596976955 -2.285698899306585e-06 -2.622011344212922e-06)
(1.000096374542699 -4.090944282654988e-05 -4.548753818476241e-05)
(1.000086552354385 -3.828103077908999e-05 -4.237453292454969e-05)
(1.000077749152771 -3.511433043153518e-05 -3.870011671267851e-05)
(1.000070004666066 -3.154464684099812e-05 -3.462173085600883e-05)
(1.000063324077834 -2.768528281250299e-05 -3.026855349913545e-05)
(1.000057689726962 -2.362690210257344e-05 -2.574120868837742e-05)
(1.000053070982772 -1.943874444991142e-05 -2.111365746898635e-05)
(1.000049432139367 -1.51710352676332e-05 -1.643644882694677e-05)
(1.000046738431754 -1.085808458996581e-05 -1.174070893106285e-05)
(1.000044960404659 -6.521725400353776e-06 -7.042448446528657e-06)
(1.000044076899671 -2.174876799609761e-06 -2.346940849219066e-06)