/*--------------------------------*- C++ -*----------------------------------*\
  =========                 |
  \\      /  F ield         | OpenFOAM: The Open Source CFD Toolbox
   \\    /   O peration     | Website:  https://openfoam.org
    \\  /    A nd           | Version:  7
     \\/     M anipulation  |
\*---------------------------------------------------------------------------*/
FoamFile
{
    version     2.0;
    format      ascii;
    class       volVectorField;
    location    "0";
    object      grad(Phi);
}
// * * * * * * * * * * * * * * * * * * * * * * * * * * * * * * * * * * * * * //

dimensions      [0 1 -1 0 0 0 0];

internalField   nonuniform List<vector> 
12686
(
(-0.333332122240639 -1.282001854544039e-05 -9.063593556568614e-05)
(-0.9999946166106641 -1.310710306922358e-05 -9.300734455406671e-05)
(-0.9999912596899884 -1.368644802823833e-05 -9.779744584568512e-05)
(-0.9999882873504963 -1.456801598738331e-05 -0.0001050977203822905)
(-0.9999859290745685 -1.576566986226074e-05 -0.0001150368008284949)
(-0.9999844955909126 -1.729556115830201e-05 -0.0001277676026558478)
(-0.9999844092811161 -1.917341927892849e-05 -0.0001434455694644096)
(-0.9999862380873147 -2.141019366583518e-05 -0.000162193493511462)
(-0.9999907305085364 -2.400530249656854e-05 -0.0001840466750222769)
(-0.9999988456459138 -2.69365540539468e-05 -0.0002088705693137812)
(-1.000011766208456 -3.014570594313139e-05 -0.0002362423625564172)
(-0.3333322455625196 -2.096344895134241e-05 -8.906737997789349e-05)
(-0.9999951748368683 -2.142574564810109e-05 -9.135823501236133e-05)
(-0.3333328832786226 -1.161413635850865e-05 -8.472685478225897e-05)
(-0.9999980594207147 -1.18418234548081e-05 -8.67656492312648e-05)
(-0.9999970562654091 -1.229946932540942e-05 -9.086893723324004e-05)
(-0.9999965184576095 -1.299118552357594e-05 -9.708427276132687e-05)
(-0.9999966921543771 -1.392198564568265e-05 -0.0001054727143308274)
(-0.999997885540547 -1.509619164990626e-05 -0.0001160946099476899)
(-1.000000488378664 -1.651495301402408e-05 -0.000128987419703035)
(-1.000004990781202 -1.817256986805876e-05 -0.0001441327442454875)
(-1.000011997990501 -2.005125572451352e-05 -0.000161409166509771)
(-1.000022235234 -2.211398285139695e-05 -0.0001805275139629785)
(-1.000036532854808 -2.429520238664442e-05 -0.0002009464561926152)
(-0.3333329811104886 -1.900162382027752e-05 -8.329625935972059e-05)
(-0.999998501087883 -1.936861510697631e-05 -8.526756856521791e-05)
(-0.9999977968425328 -2.010586640903516e-05 -8.923291604933462e-05)
(-0.9999975636126893 -2.121919701554497e-05 -9.523391468932159e-05)
(-0.3333335299796675 -1.052665239711159e-05 -7.742319868138345e-05)
(-1.000000978053204 -1.070517279471854e-05 -7.913879001333792e-05)
(-1.000001946835787 -1.106257030732873e-05 -8.257979459493226e-05)
(-1.000003412691062 -1.159916139205674e-05 -8.776195845378974e-05)
(-1.000005618352369 -1.231438476523312e-05 -9.469872027382364e-05)
(-1.000008850107191 -1.320543766644074e-05 -0.0001033877902019449)
(-1.000013448777353 -1.426526483127294e-05 -0.0001137913152241889)
(-1.00001981775365 -1.547975957877831e-05 -0.0001258081835959231)
(-1.000028425091458 -1.682405155634096e-05 -0.0001392371165851676)
(-1.000039794981657 -1.825783802435502e-05 -0.0001537299313627788)
(-1.000054481913561 -1.971991821392268e-05 -0.0001687362350724089)
(-0.3333336067045902 -1.723133906183484e-05 -7.61463952424999e-05)
(-1.000001323517012 -1.751934038387943e-05 -7.780662274654042e-05)
(-1.00000252302414 -1.809564144750197e-05 -8.113498852355243e-05)
(-1.000004219300201 -1.896019007711191e-05 -8.614348320994137e-05)
(-1.000006653004627 -2.011121792997117e-05 -9.284011248146299e-05)
(-1.000010106173718 -2.154302757791e-05 -0.0001012158105022183)
(-0.333334067853588 -9.5676315960942e-06 -6.898681864691545e-05)
(-1.000003400180769 -9.706284720924639e-06 -7.039903987392477e-05)
(-1.000005987404151 -9.982760012132757e-06 -7.32226256999489e-05)
(-1.000009070202063 -1.03950682113388e-05 -7.745233852710759e-05)
(-1.000012876051545 -1.093938555467404e-05 -8.307126812347341e-05)
(-1.000017660013889 -1.16089894278779e-05 -9.003932326675003e-05)
(-1.000023709500394 -1.239275821791798e-05 -9.827694406906453e-05)
(-1.000031345361183 -1.327319618045392e-05 -0.0001076435375090543)
(-1.000040916943545 -1.422398551899659e-05 -0.0001179105244974539)
(-1.000052787892433 -1.52071582758799e-05 -0.0001287297961432162)
(-1.00006730870399 -1.617014946694219e-05 -0.0001396000760619866)
(-0.3333341274580509 -1.566929566908758e-05 -6.787389363983519e-05)
(-1.000003667845212 -1.589316972728547e-05 -6.924163552703278e-05)
(-1.000006431448013 -1.633938087189991e-05 -7.197511283856789e-05)
(-1.000009686776789 -1.700432463827339e-05 -7.606688072804723e-05)
(-1.000013658216201 -1.788123581510851e-05 -8.149697178916697e-05)
(-1.000018596083419 -1.895847406857975e-05 -8.822175683081753e-05)
(-1.000024780810675 -2.021711945888459e-05 -9.615825994143166e-05)
(-1.000032523429943 -2.162782795249544e-05 -0.0001051635250905473)
(-0.3333345050848 -8.743071981649471e-06 -5.965259054259501e-05)
(-1.000005365139081 -8.850085234913652e-06 -6.078678340709433e-05)
(-1.000009252037964 -9.062599719555926e-06 -6.304802422357179e-05)
(-1.000013613070714 -9.377341352654151e-06 -6.641908102555175e-05)
(-1.000018654872278 -9.788767100141846e-06 -7.086664726526142e-05)
(-1.000024598842992 -1.028829096856459e-05 -7.633214351982523e-05)
(-1.000031681713533 -1.086323808753875e-05 -8.271917507781152e-05)
(-1.00004015253338 -1.149554120543732e-05 -8.987770598994728e-05)
(-1.000050264430758 -1.216023673824068e-05 -9.758545715719652e-05)
(-1.000062259160063 -1.282389051154441e-05 -0.000105527844594216)
(-1.000076342369546 -1.344319806584356e-05 -0.0001132790450918522)
(-0.3333345510977975 -1.432557929820334e-05 -5.870922112752058e-05)
(-1.000005571208324 -1.449850284410769e-05 -5.980849080081398e-05)
(-1.000009592028098 -1.484176786530162e-05 -6.199925268609441e-05)
(-1.000014081225543 -1.534980766766569e-05 -6.526310233457521e-05)
(-1.000019241983447 -1.601325554754751e-05 -6.956522000155863e-05)
(-1.000025291079304 -1.681770443112249e-05 -7.484550645423638e-05)
(-1.000032459111613 -1.774203804726614e-05 -8.10065489405368e-05)
(-1.000040987197526 -1.875636446977927e-05 -8.789852498878976e-05)
(-1.0000511185646 -1.981965194630647e-05 -9.530159357011983e-05)
(-1.000063083173767 -2.087728646644111e-05 -0.0001029071067076489)
(-0.3333348509867594 -8.055973177716206e-06 -4.962495160043758e-05)
(-1.000006916879939 -8.13849841945897e-06 -5.050797358448916e-05)
(-1.000011820855256 -8.301687640911261e-06 -5.226407326726307e-05)
(-1.000017168061642 -8.541638912071668e-06 -5.487106168036249e-05)
(-1.000023143151985 -8.852052577441903e-06 -5.828988798177877e-05)
(-1.000029935846266 -9.223702484188966e-06 -6.245770927961048e-05)
(-1.000037738832952 -9.643752224136894e-06 -6.72787486237167e-05)
(-1.000046742581908 -1.009495435893675e-05 -7.261326349695331e-05)
(-1.000057126015671 -1.055480403385684e-05 -7.826534309247825e-05)
(-1.000069041965651 -1.099477052444698e-05 -8.397086753324303e-05)
(-1.000082596565987 -1.137979873752007e-05 -8.938780974508892e-05)
(-0.3333348864775905 -1.320537512855091e-05 -4.885367566842648e-05)
(-1.000007075377898 -1.333882485491475e-05 -4.971005513207489e-05)
(-1.000012080867102 -1.360261434294542e-05 -5.141256571056813e-05)
(-1.000017522957223 -1.399023603563759e-05 -5.393849024768768e-05)
(-1.000023582849039 -1.449121306233814e-05 -5.724819324505631e-05)
(-1.000030446031248 -1.509025539192493e-05 -6.127846090985236e-05)
(-1.000038300008443 -1.576617385295587e-05 -6.593375074567893e-05)
(-1.00004732901188 -1.649061655638856e-05 -7.107569079790643e-05)
(-1.000057704695149 -1.722674741180596e-05 -7.65115535095862e-05)
(-1.000069571818752 -1.792806900132662e-05 -8.198301844661758e-05)
(-1.000083028170303 -1.853769947119245e-05 -8.715733745730177e-05)
(-0.3333351147904555 -7.507310539214507e-06 -3.907802390007728e-05)
(-1.000008098515093 -7.571515484327232e-06 -3.973519613848151e-05)
(-1.000013770950634 -7.697915649192001e-06 -4.103942214310163e-05)
(-1.000019854093098 -7.882369702590839e-06 -4.296877960769783e-05)
(-1.000026512471577 -8.118366856717526e-06 -4.548619884021898e-05)
(-1.000033908734371 -8.396686787921634e-06 -4.853454346613643e-05)
(-1.000042199966115 -8.704983570212672e-06 -5.203030808037714e-05)
(-1.000051531506222 -9.027336910131341e-06 -5.585632106009986e-05)
(-1.000062027663509 -9.343840098917032e-06 -5.98541436820136e-05)
(-1.000073778857667 -9.630325439666461e-06 -6.381727864704278e-05)
(-1.000086825050034 -9.858366214306206e-06 -6.748681961505006e-05)
(-0.3333351424074259 -1.23105363326688e-05 -3.847936430130873e-05)
(-1.000008221487296 -1.241442831201322e-05 -3.911704923157905e-05)
(-1.000013971478754 -1.26188858815204e-05 -4.038218640251189e-05)
(-1.000020125268347 -1.291706177233629e-05 -4.225268724968938e-05)
(-1.000026844095919 -1.329820858969177e-05 -4.469139177959229e-05)
(-1.000034286835287 -1.374713909340326e-05 -4.764134983930546e-05)
(-1.000042606242569 -1.424356896770557e-05 -5.101979890224983e-05)
(-1.000051942778959 -1.476141475583655e-05 -5.471122910302821e-05)
(-1.000062415439665 -1.526815990561011e-05 -5.856021929056535e-05)
(-1.000074109164284 -1.572445302445447e-05 -6.23651291668392e-05)
(-1.000087058737129 -1.608416084832332e-05 -6.587421972418741e-05)
(-0.3333353047485408 -7.096867652698739e-06 -2.815839352437433e-05)
(-1.00000894832812 -7.148088146690292e-06 -2.861129575632201e-05)
(-1.000015169923849 -7.24847846702058e-06 -2.950867202965786e-05)
(-1.000021773651792 -7.393857739401642e-06 -3.08325321685962e-05)
(-1.000028907693125 -7.577763365855663e-06 -3.255309541008624e-05)
(-1.000036713673693 -7.791244750220811e-06 -3.462556478615358e-05)
(-1.000045322102603 -8.022630279760705e-06 -3.698609503172332e-05)
(-1.000054845840209 -8.257310289886417e-06 -3.954729055332084e-05)
(-1.000065371293172 -8.477595842420409e-06 -4.219377553886949e-05)
(-1.000076947237153 -8.66273261534145e-06 -4.477864139163326e-05)
(-1.000089571511304 -8.789166901288158e-06 -4.712186826118401e-05)
(-0.333335326783851 -1.164092908471177e-05 -2.773179277063287e-05)
(-1.000009046157933 -1.172385694850124e-05 -2.817144795657627e-05)
(-1.000015328492191 -1.188633489754497e-05 -2.904230940573681e-05)
(-1.000021986062792 -1.212148091165829e-05 -3.032638878520725e-05)
(-1.000029163963864 -1.241866903329148e-05 -3.199401807209811e-05)
(-1.000037000452911 -1.276320407583839e-05 -3.400075932269438e-05)
(-1.000045622383395 -1.313595763308977e-05 -3.628355638102089e-05)
(-1.000055138732997 -1.351303482512453e-05 -3.875646219842698e-05)
(-1.000065631948786 -1.386556917828743e-05 -4.130647283087176e-05)
(-1.000077147033487 -1.415977356016978e-05 -4.379024927221927e-05)
(-1.000089678635309 -1.435740215878399e-05 -4.603278142575601e-05)
(-0.3333354275086655 -6.823904546774257e-06 -1.698974014819923e-05)
(-1.000009497017831 -6.866832844565344e-06 -1.725470814375918e-05)
(-1.000016071516919 -6.950642745806604e-06 -1.777913025446168e-05)
(-1.000023007245884 -7.071188720376512e-06 -1.855133007817817e-05)
(-1.000030440969645 -7.222130301661763e-06 -1.955220262550188e-05)
(-1.000038500055408 -7.394809947286891e-06 -2.075340302717659e-05)
(-1.000047297467802 -7.578132730565446e-06 -2.211512355845337e-05)
(-1.000056925175319 -7.758487254359367e-06 -2.358368016351108e-05)
(-1.000067445848306 -7.919759585916977e-06 -2.508924691266771e-05)
(-1.000078882953701 -8.043502616098769e-06 -2.654421777572294e-05)
(-1.000091209677885 -8.109331524918505e-06 -2.784281865276071e-05)
(-0.3333354459788644 -1.119551485945361e-05 -1.673428688162868e-05)
(-1.000009578808096 -1.126504731274738e-05 -1.699157819080629e-05)
(-1.000016203381755 -1.140074941666026e-05 -1.750065744918675e-05)
(-1.00002318239518 -1.159581322450154e-05 -1.82498945478485e-05)
(-1.000030649693976 -1.183983499959597e-05 -1.922031783807953e-05)
(-1.000038729571393 -1.211862503133973e-05 -2.038388025084467e-05)
(-1.000047531791976 -1.241402367978791e-05 -2.170133940870464e-05)
(-1.000057145085282 -1.270378783092278e-05 -2.311996946939238e-05)
(-1.000067629004848 -1.296163110244308e-05 -2.457143495916836e-05)
(-1.000079004269615 -1.315751895129103e-05 -2.597029042887997e-05)
(-1.000091242023071 -1.325833080519839e-05 -2.72137040845963e-05)
(-0.3333354877026349 -6.687655144987703e-06 -3.785784643159167e-06)
(-1.000009765910731 -6.726547230329065e-06 -3.84390295789576e-06)
(-1.00001651285371 -6.802295673061021e-06 -3.958865128682537e-06)
(-1.000023610048176 -6.910790092663247e-06 -4.127981811945326e-06)
(-1.000031188411536 -7.04577638079344e-06 -4.346875799448201e-06)
(-1.000039368127517 -7.198774940939296e-06 -4.609093833768652e-06)
(-1.000048253461065 -7.35901365281125e-06 -4.905634858025816e-06)
(-1.000057926182255 -7.51341282659933e-06 -5.22444581928862e-06)
(-1.00006843756427 -7.646669037451537e-06 -5.549961161663083e-06)
(-1.000079799150741 -7.741492009490181e-06 -5.862791727161155e-06)
(-1.000091972797896 -7.779051855321985e-06 -6.139697187561385e-06)
(-0.3333355044373758 -1.097315779769879e-05 -3.72908036481791e-06)
(-1.000009839898878 -1.103616793985704e-05 -3.785523061545638e-06)
(-1.000016631748419 -1.115884694868898e-05 -3.897138797662812e-06)
(-1.000023767139623 -1.13344515257224e-05 -4.061253327689835e-06)
(-1.000031374163342 -1.155272882349754e-05 -4.273526025683798e-06)
(-1.000039570082395 -1.179979104648508e-05 -4.527578436730845e-06)
(-1.000048456190086 -1.205801679632784e-05 -4.814544601768398e-06)
(-1.00005811133196 -1.230603919074489e-05 -5.122593312170586e-06)
(-1.000068584066923 -1.251889680603933e-05 -5.436496486030883e-06)
(-1.000079883669367 -1.26684346705238e-05 -5.737345912015476e-06)
(-1.000091970475946 -1.272404639976257e-05 -6.002546900908884e-06)
(-1.000030943935073 -3.351875058809293e-05 -0.0002652898085290965)
(-1.000055845989936 -2.648965711534645e-05 -0.000221770263720228)
(-1.000073083763093 -2.11224874972022e-05 -0.0001834445443658604)
(-1.000084831591241 -1.704326224696621e-05 -0.0001498364433002478)
(-1.0000927028441 -1.396415999106611e-05 -0.0001202885389361515)
(-1.000097872890682 -1.166835157794507e-05 -9.409207628057731e-05)
(-1.000098148536119 -1.898853445626301e-05 -9.162395653935007e-05)
(-1.000101182877181 -9.995728108472948e-06 -7.055170860859057e-05)
(-1.000101276112153 -1.629515023838535e-05 -6.87862677939945e-05)
(-1.000103200695466 -1.441679464219385e-05 -4.782928397450208e-05)
(-1.000103220588037 -8.83117171390801e-06 -4.901207517925139e-05)
(-1.000104379984782 -8.095614265111535e-06 -2.886270138137553e-05)
(-1.00010429489434 -1.322899845804891e-05 -2.818310207801422e-05)
(-1.000104902428361 -7.73968815737954e-06 -6.35399541209095e-06)
(-1.000104787606457 -1.265383861966013e-05 -6.206235118710888e-06)
(-0.9999875990181467 -4.905245825936155e-06 -0.0001061571575031269)
(-0.9999850253604914 -5.311942647796644e-06 -0.0001162856337781903)
(-0.9999833652986926 -5.831919823643564e-06 -0.0001292713703668444)
(-0.9999830427161681 -6.470866607672219e-06 -0.0001452824254442809)
(-0.9999846307084325 -7.232953605623898e-06 -0.0001644567758002178)
(-0.9999888885055702 -8.118548782986142e-06 -0.0001868467694478442)
(-0.9999970262199936 -5.086663021048617e-06 -0.0001173984810327217)
(-0.999999467645253 -5.568894770281985e-06 -0.0001305539746529797)
(-1.000003815745036 -6.132983170203764e-06 -0.0001460280949885987)
(-1.000010686036772 -6.773226016977048e-06 -0.0001637075733912328)
(-1.000020819549633 -7.477430331667299e-06 -0.0001833095117202902)
(-1.00003506942871 -8.223714402105167e-06 -0.0002042940696301039)
(-1.000018968364269 -5.219360324450737e-06 -0.0001273722383692506)
(-1.000027501401471 -5.676962293075546e-06 -0.0001410996558171618)
(-1.000038830169286 -6.165839549018025e-06 -0.0001559403900766871)
(-1.00005352502562 -6.665420408434258e-06 -0.0001713401446718896)
(-1.000066695797697 -5.458592028982619e-06 -0.0001416083937125587)
(-0.9999967941553242 -9.120790006333216e-06 -0.0002123350561140278)
(-1.000009560984601 -1.022062967182812e-05 -0.0002405126818417265)
(-1.00002868754834 -1.137991481219136e-05 -0.0002705114833968552)
(-1.000054422129937 -8.976567907454785e-06 -0.0002257575513242265)
(-1.000072203756273 -7.146010423397226e-06 -0.0001864761946158737)
(-1.000084306205742 -5.757595612584323e-06 -0.000152129495916081)
(-1.000055163514071 -1.251746192510728e-05 -0.0003004109379037877)
(-1.000090105003806 -1.353109256436084e-05 -0.0003278839381249456)
(-1.000057302526909 -3.681881816183085e-05 -0.0002941233028076204)
(-1.000091865054368 -3.976015763535324e-05 -0.0003204820843743338)
(-1.000079242554788 -9.673566703228222e-06 -0.0002460584410952036)
(-1.000109959752358 -1.024562855410828e-05 -0.0002633947616525256)
(-1.000080503940386 -2.851480905823978e-05 -0.0002413908306164803)
(-1.000110896391223 -3.017294948798815e-05 -0.0002580592194822371)
(-1.000094853138429 -7.561780712705994e-06 -0.0002000310207114482)
(-1.000121532843853 -7.866690648638064e-06 -0.0002106703280536145)
(-1.000095569112969 -2.233114176173859e-05 -0.0001965651895228772)
(-1.000121980743849 -2.321225050394554e-05 -0.0002068001094441142)
(-1.000104742452417 -5.99394510572359e-06 -0.0001610129848058675)
(-1.000127875558833 -6.13696253200111e-06 -0.0001672956077364553)
(-1.000105119053713 -1.772977138163431e-05 -0.000158443253652574)
(-1.000128035136515 -1.814000458015628e-05 -0.000164481365565384)
(-1.000110827371812 -4.833604325682151e-06 -0.0001277043359210083)
(-1.000131003076777 -4.879122875295762e-06 -0.000131217491858113)
(-1.000110993616071 -1.43179338798824e-05 -0.0001258096778934825)
(-1.000130995348767 -1.444447457165349e-05 -0.0001291761793831972)
(-1.000114471791611 -1.181152142930406e-05 -9.753942133183832e-05)
(-1.000132142163797 -1.17690022288359e-05 -9.926668751911265e-05)
(-1.000116432758329 -1.000731371820937e-05 -7.262984856911952e-05)
(-1.00013231752825 -9.865749558156803e-06 -7.34087187032089e-05)
(-1.000116343247658 -1.630102307837749e-05 -7.073343245816798e-05)
(-1.000132005194481 -1.605800061058678e-05 -7.141629269337559e-05)
(-1.000117470154164 -8.762800616406296e-06 -5.019805308961262e-05)
(-1.000132067619979 -8.564879078785705e-06 -5.048065929885152e-05)
(-1.000117291807454 -1.429618897793467e-05 -4.893767687867371e-05)
(-1.000131702473809 -1.396485369188934e-05 -4.916688681310859e-05)
(-1.000117970834835 -7.98195037177134e-06 -2.946168194748758e-05)
(-1.000131736337354 -7.753973793984797e-06 -2.952947454605702e-05)
(-1.000117743386803 -1.303664075563275e-05 -2.874136863035683e-05)
(-1.000131345040212 -1.265819161898873e-05 -2.878257880824773e-05)
(-1.000118166851081 -7.605611719222539e-06 -6.475027599642972e-06)
(-1.000131524491341 -7.364674483248281e-06 -6.479278627739501e-06)
(-1.000117917656904 -1.24291146667095e-05 -6.318833561341925e-06)
(-1.000131122587698 -1.203034803400395e-05 -6.317744969933403e-06)
(-1.000060495381872 -5.304768214714938e-05 -0.0003964473276646973)
(-0.333332058957578 -4.31223735061707e-06 -9.143489988971966e-05)
(-0.9999943300681227 -4.409583835168255e-06 -9.384778956549095e-05)
(-0.9999907763469882 -4.606088253375695e-06 -9.87231542279101e-05)
(-0.9999978328882421 -3.982436507061678e-06 -8.752869603052782e-05)
(-0.9999966762145157 -4.137559003790164e-06 -9.170298024867365e-05)
(-0.9999959816592773 -4.372120097756883e-06 -9.802873298078421e-05)
(-0.9999959952105321 -4.68794259616688e-06 -0.0001065717168979392)
(-1.000005086885259 -4.144272898870831e-06 -9.564787049817105e-05)
(-1.000008204065653 -4.446594085076277e-06 -0.0001044985905250243)
(-1.000012694816337 -4.806492721780589e-06 -0.0001151057705735364)
(-1.000023158209091 -4.172547591544031e-06 -9.936085753122284e-05)
(-1.000030737983324 -4.471589833452698e-06 -0.0001089141858351062)
(-1.000040274479611 -4.794937916804495e-06 -0.0001193994529803052)
(-1.000052140055947 -5.129844584672822e-06 -0.0001304664834750908)
(-1.000049823424026 -4.095654132422288e-06 -9.87556851061306e-05)
(-1.000061832286473 -4.321567840675583e-06 -0.0001068725613839978)
(-1.000075961717076 -4.532897590273494e-06 -0.0001148097196963899)
(-1.000082371428775 -3.833321330103588e-06 -9.053202399340418e-05)
(-1.000092407898941 -4.711372433382339e-06 -0.0001220076534591629)
(-1.000097726719912 -3.932386879029838e-06 -9.535975620813605e-05)
(-1.000114434911005 -3.98250491183097e-06 -9.891749585943293e-05)
(-1.000132244897331 -3.969961748058546e-06 -0.000100731556267346)
(-1.000116474347404 -3.370608679686152e-06 -7.360343515444756e-05)
(-1.000132472726823 -3.324074181721848e-06 -7.443258793462989e-05)
(-1.000134849399593 -1.427508048042142e-05 -0.0003499756406604853)
(-1.000189068712794 -1.450260110156746e-05 -0.0003621730140924058)
(-1.000250113491015 -1.397237638785953e-05 -0.0003589782299808013)
(-1.000135822586415 -4.19739485076815e-05 -0.0003415697702305155)
(-1.000188766790884 -4.29132230222571e-05 -0.0003534365469029048)
(-1.000249273819958 -4.203460671775947e-05 -0.0003523680187872143)
(-1.000147165675283 -1.060860189233242e-05 -0.0002756439594839316)
(-1.000190169218827 -1.065348851256533e-05 -0.0002799890110936596)
(-1.000237333404724 -1.029905089518938e-05 -0.0002736239445221928)
(-1.000147574675355 -3.123189581690268e-05 -0.0002697411176103375)
(-1.000189860185199 -3.139971371665035e-05 -0.0002737949544102828)
(-1.000236292771358 -3.042500254743732e-05 -0.0002675949804502589)
(-1.000152476990575 -8.008647281070423e-06 -0.0002168965902541415)
(-1.000186922909355 -7.92719721181734e-06 -0.0002168846490700995)
(-1.000223569839262 -7.572508219453122e-06 -0.0002089092881128904)
(-1.000152538202272 -2.361620786381568e-05 -0.0002126992497460612)
(-1.000186487011483 -2.336965750420062e-05 -0.0002125055366301684)
(-1.000222561869344 -2.231984460399931e-05 -0.0002045409436756323)
(-1.00015376696867 -6.152873244065648e-06 -0.0001699280661446786)
(-1.000181684538897 -6.004975332028806e-06 -0.0001677113412471528)
(-1.000210565109874 -5.662125355243718e-06 -0.0001595636872378876)
(-1.000153635385552 -1.817547115000838e-05 -0.0001669294162135571)
(-1.000181193852743 -1.772911545094006e-05 -0.0001646238601066079)
(-1.000209663012422 -1.670825610038247e-05 -0.0001565123702972537)
(-1.000152918612253 -4.825478800131326e-06 -0.0001318175407834196)
(-1.000175913129564 -4.649869278676371e-06 -0.0001287171505238602)
(-1.000199124328823 -4.333672161298637e-06 -0.0001212437075878183)
(-1.0001526895701 -1.427793820268476e-05 -0.0001296759484034797)
(-1.000175421285052 -1.375155613107903e-05 -0.000126542795243114)
(-1.00019833946016 -1.281061923447545e-05 -0.0001191232717083844)
(-1.000151110928425 -3.879535520868409e-06 -0.0001003009940056399)
(-1.000170452261876 -3.696957146568505e-06 -9.711302936918053e-05)
(-1.000189570128077 -3.411410745685494e-06 -9.075434224116948e-05)
(-1.000150838017785 -1.149602505292937e-05 -9.878409374185026e-05)
(-1.00016998404966 -1.095075163266727e-05 -9.559184428075851e-05)
(-1.000188890323705 -1.010154203634937e-05 -8.928836216880015e-05)
(-1.000149074755841 -3.215275627282233e-06 -7.36088831360996e-05)
(-1.000165771997652 -3.035184070572421e-06 -7.080465178910627e-05)
(-1.000181990824834 -2.777631538108813e-06 -6.577041041696819e-05)
(-1.000148785890469 -9.539781376479202e-06 -7.255967456118151e-05)
(-1.000165334244187 -9.0029063137822e-06 -6.976295242739384e-05)
(-1.000181395915793 -8.237102900620612e-06 -6.477597355712156e-05)
(-1.000147257076842 -2.765794627853432e-06 -5.033643842011767e-05)
(-1.000162125679134 -2.591230774566793e-06 -4.81890289481746e-05)
(-1.000176372080966 -2.355882442291072e-06 -4.456793410452117e-05)
(-1.00014696522577 -8.214589860982635e-06 -4.965093200434807e-05)
(-1.000161715649327 -7.694643237107162e-06 -4.75135110296986e-05)
(-1.000175840051809 -6.99483898358711e-06 -4.392757589998964e-05)
(-1.000172665875983 -2.097932950439076e-06 -2.582201238487571e-05)
(-1.000145633974726 -7.39376319964101e-06 -2.895039188533725e-05)
(-1.000159254488618 -6.889210466372271e-06 -2.761938408958757e-05)
(-1.000172175049987 -6.234344792888906e-06 -2.546364288202104e-05)
(-1.000144936191952 -7.001199474524476e-06 -6.34207596398059e-06)
(-1.000158011776759 -6.505405489512367e-06 -6.041359783502511e-06)
(-1.000170355604242 -5.873170870666284e-06 -5.562167141981525e-06)
(-1.000110741382131 -1.953261865344616e-05 -0.0004449632555401091)
(-1.000180606028706 -1.992846891200109e-05 -0.0004715900947380888)
(-1.000223548216155 -4.056817732708277e-05 -0.0003643799133374674)
(-1.000112568103438 -5.735784722123061e-05 -0.0004325856201600159)
(-1.000178389518234 -5.9752772108696e-05 -0.0004580764217878636)
(-1.000258501261222 -5.752573176681272e-05 -0.0004721911306282951)
(-1.000148211912596 -1.551595845993575e-05 -7.051980793816358e-05)
(-1.000146386841001 -1.338607662664069e-05 -4.831622130881823e-05)
(-1.000160905928256 -1.253230745572433e-05 -4.619923940906122e-05)
(-1.000174791810185 -1.13875157303766e-05 -4.268257905827706e-05)
(-1.000145059466636 -1.206473712113743e-05 -2.819547584365845e-05)
(-1.000158484864039 -1.123694408906741e-05 -2.687966389230781e-05)
(-1.000171207574095 -1.016545137092589e-05 -2.476609723029845e-05)
(-1.000144365429551 -1.143220392471807e-05 -6.179225431963175e-06)
(-1.000157262998594 -1.061904393887622e-05 -5.882176868377325e-06)
(-1.000169427977675 -9.584426545066939e-06 -5.412399531958932e-06)
(-0.3333328331138767 -3.905279610870835e-06 -8.545518680285349e-05)
(-0.3333334906663303 -3.538415970495223e-06 -7.807293248359196e-05)
(-1.000000800997049 -3.59887532014763e-06 -7.981697472705831e-05)
(-1.000001651385258 -3.719941664789197e-06 -8.331589073915425e-05)
(-1.000002998781105 -3.901776555181501e-06 -8.858741433490938e-05)
(-0.3333340373335201 -3.215001322015841e-06 -6.955291934169504e-05)
(-1.000003263095004 -3.261932321517188e-06 -7.098797657471117e-05)
(-1.00000575988411 -3.355531637848993e-06 -7.385784377119532e-05)
(-1.000008754066885 -3.495163302711706e-06 -7.815845614445037e-05)
(-1.000012474643015 -3.679589169426944e-06 -8.387453600492532e-05)
(-1.000017179045072 -3.90660829770942e-06 -9.096789837743886e-05)
(-1.000005259668779 -2.973220247781821e-06 -6.128437238805573e-05)
(-1.000009077953384 -3.045126593275168e-06 -6.358177943555465e-05)
(-1.000013373212347 -3.151655192550102e-06 -6.70078823300921e-05)
(-1.000018353807572 -3.29096934592599e-06 -7.153019208012541e-05)
(-1.000024243470092 -3.460214554542958e-06 -7.709096623226088e-05)
(-1.000031282042632 -3.65516288005976e-06 -8.359440630709623e-05)
(-1.000039722623841 -3.869768670975455e-06 -9.089045608283876e-05)
(-1.00001698635141 -2.869703818165467e-06 -5.534582562860928e-05)
(-1.000022917837056 -2.974755973857647e-06 -5.88206734742109e-05)
(-1.000029674124092 -3.100603246290048e-06 -6.305917794887143e-05)
(-1.000037450537866 -3.242945795661425e-06 -6.796548689474798e-05)
(-1.000046440736366 -3.39599545612769e-06 -7.339920725521178e-05)
(-1.000056827374388 -3.552185473628511e-06 -7.916285103557008e-05)
(-1.000068767448916 -3.701904767001784e-06 -8.498937453152345e-05)
(-1.000033714883991 -2.821379944715669e-06 -4.898983591300657e-05)
(-1.000041991358699 -2.925801235475166e-06 -5.25458895602316e-05)
(-1.000051319893844 -3.035096550154143e-06 -5.644114920941002e-05)
(-1.000061827525849 -3.142566857679168e-06 -6.051566010526231e-05)
(-1.000073607501322 -3.240067893984038e-06 -6.456046140541106e-05)
(-1.000086702469527 -3.318006085952495e-06 -6.831298693553671e-05)
(-1.000054695141573 -2.774929870842943e-06 -3.995093101230882e-05)
(-1.000065236662019 -2.849725850167504e-06 -4.264707276207524e-05)
(-1.000076843251704 -2.912777990087096e-06 -4.528405144750886e-05)
(-1.000089514407188 -2.956139732318328e-06 -4.767928649542117e-05)
(-1.000078819436975 -2.703422340689503e-06 -2.683752727507787e-05)
(-1.000091191214213 -2.726176046617374e-06 -2.816460548993707e-05)
(-1.00010113151572 -3.365485803887431e-06 -7.145713021772604e-05)
(-1.000103227928555 -2.971120585115719e-06 -4.961801183394229e-05)
(-1.000104421115482 -2.722181859755804e-06 -2.921060211571184e-05)
(-1.000104958956524 -2.601767213296512e-06 -6.429609434597937e-06)
(-1.000117558065307 -2.94893217537384e-06 -5.084431202894132e-05)
(-1.000132250684564 -2.88306719967803e-06 -5.115486882558773e-05)
(-1.000118084325761 -2.684535062622881e-06 -2.983072231632637e-05)
(-1.000131933227384 -2.608364765203228e-06 -2.991242658266751e-05)
(-1.00011829166486 -2.557157098036756e-06 -6.555018508803654e-06)
(-1.000131726999943 -2.476543508387079e-06 -6.562063847705976e-06)
(-1.000145924229964 -2.487606862380446e-06 -2.933773644884146e-05)
(-1.000159644282445 -2.318145195117796e-06 -2.799918770297463e-05)
(-1.000145224698545 -2.354625983422483e-06 -6.425593011174211e-06)
(-1.000158391027198 -2.188081654325779e-06 -6.123047577992889e-06)
(-1.000170826098048 -1.975495803522325e-06 -5.639067303836554e-06)
(-1.000315939014482 -1.366301043210123e-05 -0.0003422976001652726)
(-1.000383153866811 -1.218131968183616e-05 -0.0003029523784341787)
(-1.000444728647995 -9.733862719441933e-06 -0.0002399276384748937)
(-1.000314146431609 -4.019472638830166e-05 -0.0003325299340307334)
(-1.000379221167789 -3.541395485375265e-05 -0.0002934657579066098)
(-1.000439614989866 -2.756114396911958e-05 -0.0002318540426565882)
(-1.000286410075014 -9.613151902544355e-06 -0.0002550013665122306)
(-1.000334184598089 -8.35033750726915e-06 -0.0002214843549336512)
(-1.000376027204426 -6.511074887284225e-06 -0.0001724061729343131)
(-1.000284459958662 -2.824836219469346e-05 -0.0002486488767637951)
(-1.000331079899645 -2.44218243306863e-05 -0.0002155800107428903)
(-1.000371913759908 -1.886211677481221e-05 -0.0001675315494628874)
(-1.000260552637263 -6.919602252895707e-06 -0.0001916855301256379)
(-1.000295415382791 -5.913436189950101e-06 -0.0001642428311577102)
(-1.000325154948211 -4.558677330496002e-06 -0.0001266465969121218)
(-1.000258892434484 -2.036065620581756e-05 -0.0001874368325289067)
(-1.000293052578348 -1.736925069619266e-05 -0.0001604407446526281)
(-1.00032216207131 -1.335429491980186e-05 -0.0001236285028648897)
(-1.000238962190337 -5.10325314963589e-06 -0.0001446988434892444)