/*--------------------------------*- C++ -*----------------------------------*\
  =========                 |
  \\      /  F ield         | OpenFOAM: The Open Source CFD Toolbox
   \\    /   O peration     | Website:  https://openfoam.org
    \\  /    A nd           | Version:  7
     \\/     M anipulation  |
\*---------------------------------------------------------------------------*/
FoamFile
{
    version     2.0;
    format      ascii;
    class       volScalarField;
    location    "0";
    object      mag(grad(Phi));
}
// * * * * * * * * * * * * * * * * * * * * * * * * * * * * * * * * * * * * * //

dimensions      [0 1 -1 0 0 0 0];

internalField   nonuniform List<scalar> 
12686
(
0.333332134809523
0.9999946210217691
0.9999912645658606
0.9999882929794411
0.9999859358156743
0.9999845039028898
0.999984419753405
0.9999862514700616
0.9999907477334125
0.9999988678221855
1.00001179456773
0.3333322581212569
0.9999951792395844
0.3333328942489294
0.9999980632549755
0.9999970604696419
0.9999965232546897
0.9999966978135534
0.9999978923934881
1.000000496833909
1.000005001333394
1.000012011217828
1.000022251773238
1.000036553338927
0.3333329920594928
0.9999985049107395
0.9999978010259215
0.9999975683725774
0.3333335391374052
1.000000981241975
1.000001950306682
1.0000034166094
1.000005622912089
1.000008855538852
1.000013455353245
1.000019825787152
1.00002843492619
1.0000398069643
1.000054496343171
0.3333336158473714
1.000001326697407
1.000002526479301
1.000004223190279
1.000006657516471
1.000010111528035
0.333334075129653
1.000003402705879
1.000005990134739
1.000009073255496
1.000012879561753
1.00001766413474
1.000023714406246
1.000031351242653
1.000040923995863
1.000052796293299
1.000067318578152
0.3333341347366218
1.000003670368701
1.000006434171691
1.000009689814418
1.000013661696901
1.000018600154594
1.000024785638127
1.00003252919332
0.3333345105370901
1.000005367025749
1.000009254066537
1.000013615320398
1.000018657431181
1.000024601809142
1.000031685193658
1.000040156638289
1.000050269265911
1.00006226481
1.00007634887548
0.3333345565757697
1.000005573101945
1.000009594060172
1.000014083472956
1.000019244531271
1.000025294021572
1.000032462549922
1.000040991236336
1.000051123301964
1.000063088686286
0.3333348547780439
1.000006918188575
1.000011822255465
1.000017169603512
1.00002314488998
1.000029937839227
1.000037741142581
1.000046745269079
1.000057129133927
1.000069045551399
1.000082600625492
0.3333348903191679
1.000007076702396
1.000012082281226
1.000017524509739
1.000023584592673
1.00003044802257
1.000038302306271
1.000047331673601
1.000057707770361
1.000069575339822
1.000083032139997
0.3333351171656203
1.000008099333193
1.000013771822369
1.000019855047303
1.000026513538999
1.000033909947383
1.000042201357521
1.00005153310685
1.000062029498308
1.000073780940208
1.000086827375661
0.3333351448557288
1.00000822232942
1.00001397237372
1.000020126244397
1.000026845182972
1.000034288064586
1.000042607645458
1.000051944384485
1.000062417270758
1.000074111232465
1.000087061035986
0.3333353060134243
1.000008948762967
1.000015170385493
1.000021774154438
1.000028908251672
1.000036714303487
1.000045322818737
1.00005484665625
1.000065372219204
1.000076948277158
1.000089572660061
0.3333353281406882
1.000009046623469
1.000015328984554
1.00002198659609
1.000029164552767
1.000037001112362
1.000045623127886
1.000055139575283
1.000065632897964
1.000077148092448
1.000089679797781
0.3333354280114877
1.000009497190268
1.00001607169912
1.000023007442957
1.000030441186862
1.000038500298092
1.000047297741043
1.000056925483493
1.000067446194379
1.000078883338317
1.000091210098339
0.3333354465869244
1.000009579015902
1.000016203599877
1.000023182628935
1.000030649948769
1.000038729852563
1.000047532104489
1.000057145433222
1.000067629390702
1.00007900469337
1.000091242481214
0.3333354877912197
1.000009765940741
1.000016512884681
1.000023610080575
1.000031188445804
1.000039368164048
1.000048253500174
1.000057926224126
1.000068437608904
1.000079799197889
1.000091972846996
0.3333355046388489
1.000009839966941
1.000016631818271
1.000023767212103
1.000031374239204
1.000039570162258
1.000048456274369
1.000058111420794
1.000068584160056
1.000079883766062
1.000091970574903
1.00003097968506
1.000055870930419
1.000073100810877
1.000084842960993
1.000092710175585
1.000097877384976
1.000098152913447
1.000101185415653
1.000101278610441
1.000103201943079
1.000103221827996
1.000104380434033
1.000104295378937
1.000104902478494
1.000104787705766
0.9999876046649184
0.9999850321358755
0.999983373671381
0.999983053290775
0.999984644257814
0.9999889059945775
0.9999970331241529
0.9999994761829339
1.000003826425904
1.000010699459651
1.000020836378428
1.000035090329825
1.000018976489579
1.000027511371867
1.000038842346524
1.000053539725769
1.000066705838394
0.9999968167400787
1.000009589959729
1.000028724200271
1.000054447652073
1.000072221167234
1.000084317793032
1.000055208713285
1.000090158844437
1.000057346456462
1.000091917194395
1.000079272871552
1.000109994489425
1.000080533479322
1.000110930139964
1.000094873171323
1.000121555063088
1.000095588679376
1.000122002393754
1.000104755431612
1.000127889569782
1.000105131761682
1.000128048826352
1.000110835536788
1.000131011696566
1.00011100163172
1.000131003795225
1.000114476617784
1.000132147159329
1.000116435445636
1.000132320270974
1.000116345881823
1.0001320078732
1.000117471452328
1.000132068930633
1.00011729310694
1.000131703779837
1.000117971300632
1.000131736803349
1.000117743884754
1.00013134553448
1.00011816690096
1.000131524539445
1.000117917754098
1.000131122680008
1.0000605753693
0.3333320715260303
0.9999943344815737
0.9999907812307718
0.9999978367268166
0.9999966804278076
0.9999959864736706
0.9999960009003086
1.000005091468081
1.000008209535472
1.000012701452473
1.000023163153972
1.000030743924289
1.000040281618934
1.000052148579412
1.000049828308513
1.00006183800633
1.000075968317484
1.000082375533808
1.000092415352284
1.00009773127394
1.00011443981071
1.000132249977963
1.000116477061501
1.000132475502085
1.000134910734684
1.000189134390183
1.000250178005176
1.000135881794231
1.000188830158389
1.000249336769329
1.000147203715751
1.000190208465034
1.000237370883895
1.000147611537765
1.000189898152799
1.000236329029167
1.000152500541118
1.000186946455849
1.000223591684595
1.000152561098128
1.000186509859594
1.000222583032221
1.00015378142315
1.000181698617916
1.000210577853506
1.000153649481276
1.000181207557928
1.00020967539747
1.000152927310497
1.000175921422968
1.000199131686766
1.000152698078656
1.000175429384723
1.00019834663597
1.000151115965334
1.000170456983375
1.00018957425129
1.000150842962267
1.000169988677734
1.000188894360169
1.000149077469739
1.000165774508492
1.000181992991171
1.000148788568028
1.000165336717739
1.000181398047295
1.000147258347359
1.000162126843394
1.000176373076716
1.000146966491931
1.00016171680751
1.000175841040915
1.000172666211514
1.000145634421057
1.000159254893699
1.00017217539356
1.000144936236565
1.000158011816162
1.000170355636952
1.000110840558054
1.000180717405766
1.000223615410381
1.000112663302838
1.000178496201398
1.000258614368814
1.000148214519104
1.000146388097639
1.000160907073786
1.000174792785754
1.000145059936839
1.000158485288364
1.000171207932381
1.000144365513978
1.000157263072264
1.000169428038242
0.3333328440906532
0.3333334998281806
1.000000804188897
1.00000165486294
1.00000300271257
0.3333340446054219
1.000003265619963
1.000005762617214
1.000008757127338
1.000012478167209
1.000017183190211
1.000005261551076
1.000009079979323
1.000013375462311
1.000018356371225
1.000024246447514
1.000031285543215
1.000039726761701
1.000016987887081
1.000022919571377
1.00002967611707
1.000037452852691
1.000046443435729
1.000056830513897
1.000068771067116
1.000033716087933
1.000041992743457
1.000051321491169
1.000061829361746
1.000073609590444
1.000086704808161
1.000054695943418
1.000065237575406
1.00007684428119
1.000089515548112
1.000078819800727
1.000091191614515
1.000101134074185
1.000103229163815
1.000104421545772
1.000104958980576
1.000117559362074
1.000132251996957
1.000118084774247
1.000131933678103
1.00011829168961
1.000131727024537
1.000145924663346
1.000159644677047
1.000145224721958
1.000158391048334
1.000170826115895
1.00031599767311
1.000383199813469
1.000444757465189
1.000314202509877
1.000379264839377
1.000439642235845
1.000286442624746
1.000334209152407
1.000376042081973
1.000284491261873
1.000331103427438
1.000371927965924
1.000260571028083
1.00029542888414
1.000325162975672
1.000258910203445
1.000293065595995
1.000322169799992
1.000238972669732
1.000265103162774
1.000286982615159
1.000237623760849
1.000263305464744
1.000284790268417
1.000221454801312
1.000241606634469
1.000258233830828
1.000220362938646
1.0002402179647
1.000256589334493
1.000207621235607
1.000223656716241
1.000236728216562
1.000206726023374
1.000222558646339
1.000235458347877
1.000197069089197
1.000210292042188
1.000220964807482
1.000196317985918
1.000209396879038
1.000219949592429
1.00018945663729
1.000200816241033
1.000209914986065
1.000188805766769
1.000200057647838
1.000209067937081
1.000184524747463
1.000194748436463
1.000202894140668
1.00018393700555
1.000194074020302
1.000202149412808
1.000182101473811
1.00019178711229
1.000199483222129
1.000181544205848
1.000191152831635
1.000198786913975
1.000346856368614
1.000446026562249
1.000558666942958
1.000344077630589
1.000440815476348
1.000632761462206
1.000182779908279
1.000192747478888
1.000180446617709
1.000189904506396
1.00019741726257
0.9998731968713328
0.9998673346155535
0.3333291925925806
0.9999812316602404
0.9999684781071739
0.9999554036433408
0.9999419608402921
0.9999282033257382
0.9999143466243844
0.9999008590747931
0.9998885962118559
0.9998789944150277
0.9998743371285698
0.3333302742707377
0.9999861633974176
0.9999769123675568
0.9999676684011251
0.9999585255153589
0.9999496845651753
0.999941507360354
0.9999345905013937
0.9999298643460236
0.9999287204096968
0.9999331638005472
0.3333312596770776
0.9999906470068455
0.9999845395144464
0.9999786697524629
0.9999732203512678
0.9999684718766411
0.9998698335157499
0.9998781215414008
0.9999405769798764
0.9999460290587995
0.999964845497388
0.9999629560347665
0.3333290755206147
0.999980697677882
0.3333301774629843
0.9999857228960588
0.9999761611192887
0.9999665805223596
0.9999570644552095
0.9999675624110846
0.9999540664668293
0.9999401443329378
0.9999258296936174
0.999911316419444
0.9998970506536446
0.9999478032591894
0.9999391492613295
0.9999316924397438
0.999926362816513
0.9999245638357953
0.9998838684594993
0.99992833445742
0.9999839326519655
0.999977798301862
0.9999720632390018
0.9999670035947126
0.9999630382381457
0.9999902891995535
0.9999607835573027
0.9999611198787498
0.9999652664359661
0.9999636756037232
0.9998854177053902
0.9999201459412679
0.9998949823202304
0.9999313661123883
0.9999645484291513
1.000004410362952
0.9999704423398769
1.000010325337178
0.3333311808506753
0.9999236644221419
1.000073717539402
1.000173553899458
0.9999682043078313
0.9999748544414711
1.000219136563787
1.000036310950346
0.9999810556590926
1.000047758454606
1.000156611086153
0.9999959366207218
1.000057867883551
1.000167320225336
1.000066188708969
1.000240572154609
0.9992752863764601
1.000070509163555
1.000137868301226
0.9999781369419172
0.9999955691019385
0.9999920424226271
1.00001877979859
1.000057391506252
1.000022341180471
1.00034068073261
1.000463197689364
1.000665652649135
1.0002500647641
1.000459887863768
1.000662036322935
1.000227131199806
1.000571873957907
1.0009968002931
1.0002470236537
1.000572010705278
1.000990744805685
1.000308170708857
1.000556295984436
1.000818677217032
1.00035471106811
1.000523901407041
1.000817482165531
1.000444430380624
1.000632818958463
1.000571025308437
1.000952438403428
1.000357007069246
1.000516429304915
1.000778484774135
0.3333344869759375
0.333334836599695
1.000006837106126
1.000011689197493
0.3333351030101721
1.000008036452517
1.000013669255111
1.000019716270787
1.000026343693443
0.3333352947067574
1.000008898755986
1.000015089312199
1.000021665496381
1.000028777053908
1.00003656732161
1.000045168670395
0.3333354185229535
1.000009455392187
1.000016004298071
1.000022917872558
1.000030334360675
1.000038382691375
1.000047177459055
1.000056812286181
1.000067351439794
0.333335479186902
1.000009728134414
1.000016452122195
1.000023529757284
1.000031093390523
1.00003926468979
1.000048149433462
1.000057830885063
1.000068361708742
1.000079754617065
1.000091972257398
1.00070477348785
1.000631418314915
1.001429090634822
1.000868410099047
1.00066227820381
1.001333459051972
1.000816805937685
1.000693202042731
1.001415670313559
1.000856491185891
0.9999299493434102
0.9998982302335133
0.9998625689497976
0.9998214737762408
0.9997731504014634
0.9997154020283949
0.9996455012915105
0.9995599879243405
0.9994541989272868
0.9999599610531003
0.9999316323215289
0.9999007631455827
0.9998661552361682
0.9998264191415397
0.9997799089225341
0.9997246522016261
0.9996582677854389
0.9995777977877591
0.9994791289651224
0.9999390970811163
0.9999119616203239
0.9998819357964803
0.9998480317138069
0.9998091543763008
0.9997641049364369
0.9997116201437218
0.9996504896056548
0.9995798865569873
0.3333256675496933
0.9999650932823766
0.9999405870674892
0.9999141892736246
0.9998850612598239
0.9998522905857881
0.999814886886817
0.9997718013031961
0.999721989404366
0.9996645507493752
0.9995990000542426
0.9999019404466595
0.9998751260584375
0.9998453229309112
0.9998121199438387
0.999775346746274
0.9997353375031133
0.999693460461481
0.3333268485103414
0.9999705107382745
0.9999499964623449
0.9999281990780682
0.9999046023575638
0.9998787055311104
0.9998500603739177
0.9998183463365697
0.9997835130316973
0.999746044838551
0.9997074571421128
0.9998798015245554
0.9998569525491924
0.9998333498569774
0.9998101315585026
0.9997894895098748
0.3333280388872325
0.9999759605775331
0.9999594153845458
0.9999421174999347
0.9999238168441091
0.9999043361604028
0.9998836282708121
0.9998618714084462
0.9998396255897278
0.9998180845773854
0.9997994680575928
0.9993148266812204
0.9993474005224662
0.9995261256855388
0.9995540061102388
0.9996531121965374
0.999671166161422
0.99977527408863
0.999787555839256
0.9991723983643307
0.9992066709869598
0.9993579024969867
0.9993790972155694
0.9994415414353457
0.9996271761216381
0.9996473014322595
0.9997882119024711
0.3333254811917656
0.3333266858700936
0.9999697655521785
0.9999487050029916
0.3333278996532457
0.9999753240391932
0.9999583179153301
0.999940501621848
0.9999215968681338
0.9999013927780751
0.9999642376788936
0.9999262824525679
0.9997737327922858
0.9997962576639274
0.9998125066449207
0.9988563112436322
0.9989191055995552
0.9990863008795331
0.9992114666743371
0.9992780840598428
0.9993574712850746
0.9996005134132139
0.9996238832377974
0.9998229375591438
0.9989363096907264
0.9987864059323043
0.9993299165989358
0.999300019778535
0.9998339204779058
0.9997709320166106
0.9999638401621649
1.000115821369288
0.999781305853211
0.9999013956566196
0.9987400287427152
0.9984785380945304
0.9983183168234111
0.9987841591526656
0.9987240800800926
0.9986712706721157
0.9992178203295603
0.999122979791326
0.9993965149690833
0.9992354827278419
0.9992641975826367
0.9995410721412875
0.9996793736725563
0.9998830456883082
0.9999332277924696
0.9997510796536109
0.9997615835123165
0.9999644912225623
0.99839242471816
0.9989661391340583
1.002191406705629
0.99868821577526
0.9993482936288779
1.002196190227411
0.9994938359027954
1.000101855191198
1.002407938785125
0.999638462859056
1.000250578929313
1.002256809704352
1.000188652434635
1.000566539887701
1.001046951695406
1.000215038075202
1.000567445009167
1.001040580881013
0.999565121020395
1.002152997930608
1.000284612784411
1.002204885390483
1.000570830152671
1.001000120376637
1.003920239171052
1.002807360784446
1.001547577938429
1.001438335414994
1.003467797233171
1.002527304382987
1.003575507114688
1.002597704020301
1.001532214139497
1.000220518485636
1.000178463931793
1.000122150185343
1.000008216403338
1.000162184196879
1.000162589357258
0.9996353655696313
1.000275459956988
1.000476529796251
1.000491920439724
1.000886077224241
1.000892564427272
1.000558830571697
1.000778789171724
1.001005953776231
1.001326313426089
1.001344012097553
1.001071568719916
1.000853937572059
1.000230980122217
1.000282671024398
1.000477868956144
1.000482593736973
1.00031456212443
1.000487843778059
1.000490498683192
1.00088174086379
1.00057158874047
1.000862338807616
1.000552252978909
1.000757715218193
1.000557507877214
1.000774813214898
1.001314730491531
1.000964033344477
1.00126465279914
1.001028657795107
1.001063527322198
1.000827993372086
1.000849068789718
1.000554260442502
1.00055127293845
1.000547605839042
1.000743980125143
1.001000801737602
1.000675380655629
1.000810078423936
1.000599592107577
1.000542689630518
1.00072456019244
1.000644986660773
1.00053607618806
1.000545846378679
1.000740202100268
1.00078941828779
1.000962673141526
1.000993663480551
1.000555555004081
1.000787736260712
1.000669168231861
1.000805712314502
1.000254280829746
1.000484227927695
1.0002884513202
1.000488736515489
1.000853794776459
1.000549516455018
1.000750250181114
1.001243417485597
1.001013735438299
1.000818412505053
1.000949337841011
1.000596478787511
1.000778050025704
1.001449631034117
1.001137816364488
1.001058651136538
1.001072785167479
1.001000936506924
1.001357863400111
1.001089429808358
1.001128713575131
1.000827495588141
1.001015660451849
1.001050531448679
0.9988460924465959
0.9990370723824755
0.9989950775006302
0.9989748209214183
0.9991603235950732
0.999131317466261
0.9989572568248216
0.9990629510529284
0.9991032616070558
0.9990238759612523
0.9990139649584175
0.9991627920130396
0.9992541476690355
0.9992181600019102
0.9989115932910212
0.9991897189955041
0.9988158947132372
0.9991872917993001
0.9992234236420343
0.9988706737920288
0.9994363270680543
0.9987251405006181
0.9992551438087999
0.9995208734493667
0.9992955151065964
0.9994903722678981
0.9993565503277912
0.9995797839099199
0.9996717365418772
0.9995874451840105
0.9999169349676051
0.9993943460245113
0.9997180294711785
0.9998741604468883
0.999680854884299
0.9997526222269981
0.999975712715839
1.000152840865318
0.9999937085577701
0.9997992592684363
1.000113511981527
0.9999901683324843
1.000157730653829
1.000157125386647
0.9987209225294902
0.9991080373520284
0.9990694931313105
0.9986061821606796
0.9989994365694395
0.9986218796669492
0.9990348518859832
0.9983831968979384
0.9989831154445481
0.9989769399767059
0.9985070789888818
0.9984059866093941
0.9990206453723698
0.9990224640434516
0.9982865331083288
0.9992012413423166
0.9991465225629212
0.9982939822138822
0.9989953932193857
0.9983348455827705
0.9990435956980726
0.9988932344587264
0.9991215440916696
0.9991850748171845
0.9988030257788574
0.9991509901932849
0.9987121688959903
0.9990571280907744
0.9986645917530349
0.9991458190011384
0.9991738645135113
0.9985714835796575
0.9985359449250876
0.9990446834413647
0.9990517569707187
0.9993793746142946
0.9984975092271046
0.9992361757106483
0.9986396699756417
0.9992031696522801
0.998426428508092
0.9990745614081477
0.9993182551036918
0.9991294535248119
0.9991604996855289
0.9994693123481401
0.9991478193051662
0.9991554395286505
0.9991862693575325
0.9994848317435012
0.9995694059620919
0.999352246153576
0.9998167792519425
0.9997937039067082
0.9991763974718626
0.9992167351831345
0.9996145272235128
0.9992910009873344
0.9993839964699166
0.999430491425023
0.9992620664224398
0.9994551561242846
0.9991797088759617
0.999481566809729
0.9993145114174439
0.9995595671679961
0.9996469378441031
0.9991761972648896
0.9992110457734613
0.999498305706271
0.999584302489691
0.9998924968383364
0.9994248105244645
0.9998315632267406
0.9993506361918107
0.9996927474747856
0.9992426805196539
0.9996296679409368
0.9996651450793261
0.9995723950510096
0.9996662293882926
1.000113823953421
0.9999135719766343
0.9998950765168878
0.9997132012728126
0.9998470245665525
0.9998897661533677
0.9996547360552049
0.9997323784140527
0.9997063968789049
0.9995845341145919
0.9996787989147039
1.000143002586924
0.9999420525122159
1.000119816618533
0.9999741549020791
0.9999254257447061
0.9997786114266569
0.9997258934416399
0.9983377474141951
0.9992949285544052
0.9992390463675948
0.9985675208010876
0.999692863373669
0.9986071987057062
0.9997461615489649
0.9996903507224764
0.9999151561979293
1.000835123144583
0.9990272730056993
0.9997267692959857
0.9999646212926135
1.000859802595685
1.002577408749241
1.002189979575405
1.002623369717851
1.000734386031872
1.00122872088792
1.000772112572403
1.001239819385209
0.9994756213794471
0.9989268620346079
0.9999138910185102
0.998513786120539
0.9993305171321474
0.9988273618970309
0.9997797708409208
1.000008801068896
1.000118204606817
1.000928384629363
0.9991609188270386
0.9999230599542025
0.9999956621015818
1.000874712457201
1.002200593244356
1.00241529851385
1.002547087901291
1.000954648258978
1.001263410728381
1.000851393398247
1.001246014267075
0.9994492496578312
0.9999104353785597
0.9998882323166574
0.9998937876864648
1.000268297968496
0.9999339596667075
1.000284596719068
1.000929231001852
1.000429524314777
1.001015351519581
1.000138067977167
1.000943139940982
1.000442494320297
1.001013447540099
1.001930235261091
1.002451262457284
1.001962587209403
1.001271967896533
1.001240270010241
1.00127445749636
1.001231747123761
0.9999828554864997
1.000060663864216
1.000335938961137
0.9995222645435161
0.9999246232971164
0.9999593146569334
1.000294880844847
1.000979555100951
1.00048226953292
1.001002615914939
1.000160801385504
1.000951385981336
1.000450601635821
1.001011904202531
1.00237953612569
1.001818239989504
1.001909107700879
1.001272936608409
1.001198722873932
1.001275362449213
1.001225932390465
1.0004607443425
1.000003266035488
0.9999857885576288
1.000339558107408
1.00035130037956
1.000920529607602
1.000926963070174
1.000485960832689
1.001005721777027
1.000494696991105
1.00100166202995
1.001056569064549
1.001427607881605
1.001447631243552
1.001789230396791
1.001818057094876
1.00120129036991
1.001191727887596
1.000193859239899
1.000463014638332
1.000471637596454
1.000060243242677
1.000388108402099
1.000014434826172
1.000358695650213
1.000916217832885
1.000570188507846
1.000896751896726
1.000521092677442
1.000984481799871
1.000500129140885
1.000998790106794
1.001414510711332
1.001012387948053
1.001357965652191
1.001689390049679
1.001770402670232
1.001156038111362
1.001185300843507
0.9988976087562849
0.9995329515433252
0.9992650231715322
0.9999654598313468
1.000283151794037
1.000164662462233
1.000946129346679
1.002359180137002
1.001061639646555
1.00126646088136
0.9996845093763895
1.00000607430343
1.000099701755038
1.000351712327353
1.000988006068473
1.00049407427665
1.000997438286217
1.001779966268467
1.001268973225194
1.00118621303827
1.000223894614475
1.000474779023251
1.000078535169468
1.000399350087355
1.000888103853478
1.000528769906506
1.000977514932999
1.001334032648773
1.001655244728281
1.001142933549607
1.003060299208901
1.0039534898074
1.00312973825267
1.00216249928392
1.002868868337696
1.002203538691243
1.001571112989331
1.001984858854374
1.00202055398728
1.001820805825937
1.002743461597139
1.00197448535542
1.003834001836585
1.002823089699148
1.003015057517404
1.002767384032441
1.002021974683035
1.002135807649038
1.001466159036502
1.001862328645072
1.001961622719278
0.3333243416226318
0.9999589987912473
0.3333245508289476
0.9990459953215218
0.9990753560616534
0.9987513313451635
0.9987397704764828
0.9988658711420303
0.9988447854460746
0.9988120218756592
0.9988475809506546
0.9988966824162289
0.9988064202977435
0.9990015047544532
0.9989048379507891
0.9988289448795209
0.998789585243838
0.9986318094862544
0.9986431877476851
0.9986382885786824
0.9985077899354197
0.9986115780680684
0.9985901782582787
0.9984466820032039
0.9984643107243624
0.9982816124883067
0.9981441396089472
0.9983141358673514
0.9981705235780374
0.9979770497977299
0.9979387811570853
0.9980013591957339
0.9980495342442538
0.9986605042966175
0.9987800874512839
0.9986678273273933
0.9985657900546974
0.9985610773350241
0.9984691808638823
0.9983875089341715
0.9983207901007222
0.9984004628138717
0.9981923822134776
0.9984077454891893
0.998157376198913
0.9979930333686984
0.9979254960216137
0.9981057171927671
0.9981562777795366
0.9984667242175079
0.9992179907466077
0.9985479126133694
0.9992692763479148
1.002033384283944
1.002015833331474
1.000357484932845
1.000419671958566
0.9983571650644995
0.998562098695785
0.9981426904571159
0.9984360645285718
0.9989720750560941
0.9996641436289287
0.9987248148706688
0.9995440658433536
1.002149894991447
1.002141655614216
1.000711495669972
1.000547127882071
0.9986135774058965
0.9989883036187313
0.9992569975598042
1.000047793627876
1.002166935408261
1.000885225158696
1.003713937041349
1.003793616839266
1.003715486255908
1.003832136616757
1.003971608581002
0.9999915971665785
1.000090811977951
1.000059872737418
1.000050049601795
1.000090412810105
1.000185945566693
1.000188723185668
1.000277048229797
1.000255460427549
1.000182375328533
1.000027635963089
0.9999292904526162
1.000065425741725
1.000036557108319
1.000005440345813
0.9999497211022915
1.000065304964192
1.000157497641126
1.000228865843992
1.000340587138606
1.00026751882534
1.000264168908857
1.000182942182316
1.000186742903049
1.000161419066251
1.000232493455949
1.000272508033166
1.000210053759385
1.000269326236912
1.000177113929787
1.000179798808303
1.000464101208416
1.00053387735433
1.000536793283797
1.000504107232554
1.000504734435855
1.000576724684588
1.00058011173212
1.00073768984449
1.000668693116847
1.000742299345609
1.000597544918093
1.000598518356432
1.000662967963626
1.000666620201711
1.000526736740151
1.000449088324105
1.000519450506548
1.000494433802509
1.000571412830059
1.00050231610016
1.000543010091608
1.000646398146081
1.000729549621208
1.000715774100365
1.000594152942819
1.000587940490079
1.000644000125408
1.000655216557259
1.000325388551789
1.000256544234612
1.000224224832344
1.000303640521908
1.000327334072237
1.000254746456989
1.000301124278481
1.000662404776711
1.000571650054011
1.000672474096382
1.000571402350779
1.000571486254566
1.000661309146972
1.000673317314371
1.001050226856893
1.001001367845636
1.001108236117306
1.000947556507359
1.000951849213137
1.001044790848328
1.001114184056698
1.000335998710622
1.000240865843401
1.000320207780376
1.000272567588339
1.000266899270583
1.000339952377396
1.000315155157596
1.000657588359671
1.00067125045128
1.000572023919283
1.000570989263541
1.000659702103664
1.000570283525587
1.000669618652623
1.001028750746246
1.001100378309649
1.000983235826908
1.00094187035417
1.00103761292721
1.000934828538059
1.00109067253306
1.000323843358249
1.000311297803381
1.00035033446717
1.000434824434788
1.000434353058894
1.000480052244414
1.000491730525372
1.000832121468222
1.000875975903527
1.000819790568047
1.000776704086273
1.000778678878393
1.0008286411167
1.000879867132128
1.000364183416814
1.000448830427168
1.000405631356576
1.000495781067932
1.000353534657052
1.000432534904517
1.00048659103361
1.000818334794608
1.000810465475174
1.000870777086869
1.00077316971834
1.000767792793216
1.000824152154034
1.000863603819195
1.000697230530964
1.000572341194202
1.000600787485372
1.000644560281369
1.000662079872904
1.000570118848
1.000566825475171
1.000648541068806
1.000565121292001
1.000658539687717
1.000977827867012
1.001051260518739
1.000939600537883
1.000905983746801
1.000992721833949
1.000893934708328
1.00103501778953
1.000339328602489
1.000437519642843
1.000421466639599
1.000722326160079
1.000541142340061
1.000717856742233
1.000786421888202
1.000833346701068
1.000757408464422
1.000729741919536
1.000793521754461
1.000718678699832
1.000820725189061
1.000908496503103
1.000709213540792
1.000827072251301
1.00141420621514
1.001439299090912
1.001524958626918
1.001322059468136
1.001330991622148
1.00140418460725
1.001536512662125
1.000970180889239
1.000923499226672
1.000904156303512
1.000872011427419
1.000928574347129
1.000915628724147
1.000963471967227
1.00075593100837
1.001284439559073
1.001306897932385
1.001417171280474
1.001238186417153
1.00121482240146
1.001310433739979
1.001387380082477
1.000898391478379
1.00087470259315
1.000802978881132
1.000854205520838
1.000861765173015
1.000839469774909
1.000911731047457
1.000676412850165
1.000790317334202
1.000774324003427
1.001374850301005
1.001399195532351
1.00150978292928
1.001310311335113
1.001295880365663
1.00139101328347
1.001491174788481
1.000945433209645
1.000845851817798
1.000915902128406
1.000893259568503
1.000906906680585
1.000955334869594
1.00087939113861
0.9991649482004931
0.9991197056763086
0.9991029372006881
0.9992246613526297
0.9992124579983476
0.9992596866005038
0.9992514729223501
0.9992263733881819
0.9992569743551749
0.9991506652588511
0.9992514957990887
0.9992785359827121
0.9992870132992807
0.9993064327143637
0.9992843454540475
0.9992065986635412
0.9993287819252571
0.999362185215904
0.9988704027598393
0.9987983939709587
0.9988151274964889
0.9989518892047041
0.9989227697268492
0.9989620213998744
0.9989087138750026
0.9988919383556829
0.9988382156939509
0.9988670626196217
0.9990406911952467
0.9989440809897366
0.998981540065437
0.9989749768563267
0.9990576365811881
0.9991266637177866
0.9994096727598468
0.9991966370977955
0.9994470810186005
0.9993846092971854
0.9993047545541857
0.9994336636205851
0.9994384906176077
0.9994329796495294
0.9993308344398855
0.9995693757676142
0.9994709387934673
0.999329191474352
0.9993628342224692
0.9994582889359273
0.9994821525036888
0.9995120959671216
0.9994065770567875
0.9995188038178066
0.998982017017925
0.9989458509764432
0.9988946717701795
0.9990509348330973
0.9990368886955192
0.9990734070950774
0.9990056394785832
0.998852841511618
0.9988308620253382
0.9987588483726493
0.9989782918282737
0.9989306576707684
0.9989890270690194
0.9989154442077414
0.9993193325112742
0.9992825989418905
0.999300639733204
0.9993518604179581
0.9992781760205749
0.9993308792481899
0.999318331734343
0.9994536878347542
0.999310826802831
0.9994029945643541
0.9993382040729448
0.9993514404552801
0.9994352499685246