/*--------------------------------*- C++ -*----------------------------------*\
  =========                 |
  \\      /  F ield         | OpenFOAM: The Open Source CFD Toolbox
   \\    /   O peration     | Website:  https://openfoam.org
    \\  /    A nd           | Version:  7
     \\/     M anipulation  |
\*---------------------------------------------------------------------------*/
FoamFile
{
    version     2.0;
    format      ascii;
    class       volScalarField;
    location    "0";
    object      p;
}
// * * * * * * * * * * * * * * * * * * * * * * * * * * * * * * * * * * * * * //

dimensions      [0 2 -2 0 0 0 0];

internalField   nonuniform List<scalar> 
12686
(
3.579768651238856e-05
3.718529556955188e-05
3.989809432745168e-05
4.388733795309668e-05
4.908738993177233e-05
5.535208669928011e-05
6.237485706322494e-05
6.957965987765579e-05
7.597514070727057e-05
7.996996591996366e-05
7.916192850860324e-05
3.456098710620302e-05
3.590387784681904e-05
2.92331793307592e-05
3.027879319758148e-05
3.223908318430988e-05
3.497093629191992e-05
3.829057189334974e-05
4.19168799984022e-05
4.540433521750565e-05
4.805877900854493e-05
4.883620428506099e-05
4.623181576882075e-05
3.818019754640585e-05
2.789986037092467e-05
2.889902147369257e-05
3.075987599013797e-05
3.332985422626503e-05
2.214993901656218e-05
2.283239920280243e-05
2.402224058552583e-05
2.551397505770855e-05
2.704847356536635e-05
2.826746665600874e-05
2.866302072231236e-05
2.751962061092575e-05
2.385307218684025e-05
1.635670641377767e-05
3.375149293563042e-06
2.076892101371697e-05
2.140748231252015e-05
2.250654556243636e-05
2.385592209450817e-05
2.519112459278956e-05
2.61493386028646e-05
1.495519866024585e-05
1.528309005594579e-05
1.573949970281671e-05
1.608358184551911e-05
1.601629202862153e-05
1.514731760394753e-05
1.296114182137474e-05
8.782461426032945e-06
1.74657761120689e-06
-9.215109065747287e-06
-2.535844786600677e-05
1.356282067641547e-05
1.385174524857382e-05
1.422976614241652e-05
1.445479808644179e-05
1.422681731142002e-05
1.315613748045983e-05
1.073128670591669e-05
6.286842844894059e-06
8.034559217760411e-06
8.037954602248454e-06
7.835760931760555e-06
7.172255537112194e-06
5.734648927343997e-06
3.131765590636066e-06
-1.125393460163125e-06
-7.639694144684868e-06
-1.713507791212148e-05
-3.044673299161867e-05
-4.848306877939713e-05
6.655184281746785e-06
6.62549034820692e-06
6.358351777305804e-06
5.599155059573562e-06
4.037008753986571e-06
1.284508442925342e-06
-3.140339386064525e-06
-9.828517559218483e-06
-1.948536881098579e-05
-3.291900244495839e-05
1.732652493700065e-06
1.455634884990692e-06
6.926586868998037e-07
-8.131451735771376e-07
-3.371387123019899e-06
-7.355732083048123e-06
-1.321178854476017e-05
-2.145958491411824e-05
-3.268610150658742e-05
-4.752194136533127e-05
-6.659521004901572e-05
3.800372587923308e-07
7.575832286511669e-08
-7.394498686703192e-07
-2.31986368018804e-06
-4.971452885514156e-06
-9.062399190623312e-06
-1.503004961794153e-05
-2.338238015171843e-05
-3.468956313398183e-05
-4.95599642751768e-05
-6.859403106311195e-05
-3.658373412721612e-06
-4.163655954844959e-06
-5.377872180186639e-06
-7.551400342874188e-06
-1.098184866299699e-05
-1.601752447476502e-05
-2.305679397079202e-05
-3.254129985631426e-05
-4.493959097740564e-05
-6.071727601075808e-05
-8.028993260694714e-05
-4.979317725967097e-06
-5.506723574152302e-06
-6.762282110166855e-06
-8.99291265789164e-06
-1.249162256190442e-05
-1.76004403599416e-05
-2.470918547280963e-05
-3.424813570268658e-05
-4.667126798446505e-05
-6.242637229873401e-05
-8.190852548792404e-05
-7.904411670367436e-06
-8.581928309091509e-06
-1.013362474817608e-05
-1.280073125154784e-05
-1.686647766331541e-05
-2.265390777309295e-05
-3.051940377477232e-05
-4.084001782627508e-05
-5.399212001344597e-05
-7.031901058990415e-05
-9.008585443040168e-05
-9.195727622797247e-06
-9.891299920007968e-06
-1.147587740793952e-05
-1.418676981731973e-05
-1.830213575044509e-05
-2.413846177824446e-05
-3.204374788536601e-05
-4.238459975528039e-05
-5.552484071666484e-05
-7.179342661222414e-05
-9.144017760911148e-05
-1.083101932407844e-05
-1.162339396772623e-05
-1.339873581000891e-05
-1.639017030054016e-05
-2.086885457399559e-05
-2.713817594393863e-05
-3.552369995299365e-05
-4.635711524782627e-05
-5.995236439285469e-05
-7.657260650322603e-05
-9.638763997596625e-05
-1.209983529476241e-05
-1.290747457064772e-05
-1.470996107193344e-05
-1.773628085982257e-05
-2.225232254984335e-05
-2.855487451819669e-05
-3.696139389416995e-05
-4.77938990641951e-05
-6.13552610075822e-05
-7.789663711936683e-05
-9.757576998995175e-05
-1.232293436066075e-05
-1.31726563103252e-05
-1.505924063373408e-05
-1.821116731217052e-05
-2.289282876783288e-05
-2.93969752033781e-05
-3.803297684080806e-05
-4.910924167537361e-05
-6.29083259839101e-05
-7.965386888915631e-05
-9.946956535392167e-05
-1.357968741374288e-05
-1.444325923557326e-05
-1.635410014385575e-05
-1.953646768290162e-05
-2.424942128577073e-05
-3.077913278044836e-05
-3.94270466979744e-05
-5.049233251232553e-05
-6.424724229417502e-05
-8.090458372308613e-05
-0.0001005775878611977
7.017132187031855e-05
2.202934219020544e-05
-1.704703541115443e-05
-4.804658288068861e-05
-7.213940661727225e-05
-9.045110555923071e-05
-9.230531011218713e-05
-0.0001039529355039029
-0.0001053915260702678
-0.0001145772276958603
-0.0001134195871361096
-0.0001194213906408907
-0.0001204059024099666
-0.0001223306511210545
-0.0001232327441202342
4.470998561812688e-05
5.004418666338533e-05
5.650207007381532e-05
6.379046191319817e-05
7.134612115483988e-05
7.81862144547707e-05
4.307300807723944e-05
4.677706236232403e-05
4.97025188727151e-05
5.080320848005259e-05
4.856156164847244e-05
4.088187691044315e-05
2.900340125943757e-05
2.555969317844772e-05
1.829382173671722e-05
5.521842374635809e-06
-2.366363255702241e-05
8.271687171931639e-05
8.251097717654905e-05
7.412496474469866e-05
2.505640492725715e-05
-1.47559366954265e-05
-4.631905735802985e-05
5.322320518306244e-05
1.519698759581359e-05
4.879636659005809e-05
1.063037069970235e-05
-1.854310788937589e-06
-4.263639483657498e-05
-5.06835750307063e-06
-4.578957538088971e-05
-4.436801782400405e-05
-8.483035273182597e-05
-4.667625680104488e-05
-8.696353759428105e-05
-7.65876632699707e-05
-0.0001151386708338144
-7.823995028836465e-05
-0.0001165695320043996
-0.0001006182378636383
-0.0001366324184587679
-0.0001018055596146147
-0.0001375907535393106
-0.0001190920875719446
-0.0001523102171324025
-0.0001314559298092633
-0.0001624067078953432
-0.0001326082896249543
-0.0001631574961751103
-0.0001399124524368825
-0.0001690705665171295
-0.0001407880463116374
-0.0001695763763915121
-0.0001451759432638771
-0.0001731055229847507
-0.0001458849022016751
-0.0001734682048947488
-0.0001476984305681534
-0.0001750056464549219
-0.0001483292024276584
-0.000175302454936502
8.641325419873194e-05
3.6459762233845e-05
3.786981374386255e-05
4.063341663570171e-05
3.101502471096773e-05
3.302593177914541e-05
3.584046477355064e-05
3.928098138768037e-05
2.803072380678562e-05
2.938434672978302e-05
2.994773619026936e-05
1.413828498791403e-05
1.009859814604552e-05
3.207202328190682e-06
-7.620267615080996e-06
-1.589008978039301e-05
-2.913495470320242e-05
-4.714256933484036e-05
-6.552365003020374e-05
-7.083184539954515e-05
-8.944902886704474e-05
-0.0001182284297025939
-0.000151664999845857
-0.0001308126705938728
-0.0001619654489129176
-4.536029625903191e-05
-0.0001318371230969973
-0.0002473694837577547
-4.951697005312519e-05
-0.00013565270191872
-0.0002505424009775947
-0.0001005134596740907
-0.000177100742303983
-0.0002723070353137975
-0.000103250153489485
-0.0001790733130235632
-0.0002729568936581467
-0.0001379077961333646
-0.0002038554085871323
-0.0002812538873895897
-0.0001396065279696275
-0.0002048166465441396
-0.00028111005234297
-0.0001628124224222117
-0.0002191107048133997
-0.0002822313340972084
-0.0001638360154703677
-0.0002195161420776632
-0.00028179843980877
-0.0001791602394370555
-0.0002273528224787393
-0.0002794175867278786
-0.0001797592248000226
-0.0002274534170983427
-0.0002788891900297572
-0.0001897276311324393
-0.0002314384268084319
-0.0002751523928709419
-0.0001900636114508265
-0.0002313745188408254
-0.0002746109279594192
-0.0001964212200335789
-0.0002331806281428714
-0.0002707713294446384
-0.0001965966552567445
-0.0002330306190230369
-0.0002702493859893234
-0.0002005192657944625
-0.0002337190605788695
-0.0002670338994657563
-0.0002005992571270623
-0.0002335260338810528
-0.0002665394709523494
-0.0002643628178490469
-0.0002028743691325899
-0.0002335388760646084
-0.0002638915321317586
-0.0002039004391562281
-0.0002334571923907235
-0.0002625214180725362
3.35070438620433e-05
-5.758528111980535e-05
-0.0001877829481707962
2.839799742368551e-05
-6.448121364605988e-05
-0.0002017205811880305
-0.0001968219297896575
-0.0002006452711016549
-0.0002330340142395766
-0.0002654550724227869
-0.0002028209697941528
-0.0002330123585396034
-0.0002628566259275545
-0.0002038028836918326
-0.0002329178792931363
-0.0002615135222796424
2.994584146899348e-05
2.288774189636091e-05
2.35926134827093e-05
2.482890694427403e-05
2.639367818674758e-05
1.569924581080377e-05
1.604711302207781e-05
1.654378530490023e-05
1.694915713092898e-05
1.696482201901542e-05
1.620032183209804e-05
8.792589693043526e-06
8.62385839985427e-06
8.009772204641465e-06
6.636670459429962e-06
4.111570183579961e-06
-5.79710077557269e-08
-6.48074989532792e-06
-9.412721559832374e-09
-2.519117639093778e-06
-6.447769747302078e-06
-1.224511198350975e-05
-2.043724898490502e-05
-3.161968954680243e-05
-4.643438757898492e-05
-1.517295250417337e-05
-2.217522999182208e-05
-3.16299988114813e-05
-4.401322598015522e-05
-5.97996336118838e-05
-7.941533738289411e-05
-4.001219762105312e-05
-5.316831914818592e-05
-6.952262064009741e-05
-8.934816107362151e-05
-7.585392432268398e-05
-9.57360420714393e-05
-0.0001031668684879939
-0.0001127795372413422
-0.0001188713202589723
-0.0001218234163166915
-0.0001394136563345437
-0.000168758019966192
-0.0001447641388832618
-0.0001728682318839928
-0.0001473274489704656
-0.0001748030101548089
-0.0002028474688600142
-0.0002337518441637985
-0.0002038971750917682
-0.000233677784973439
-0.0002629799232647724
-0.0003951008453562184
-0.000553307076032817
-0.0007011841308971436
-0.0003929176336823319
-0.0005483102651091661
-0.0006913053008638414
-0.0003828983956946573
-0.0004978340609976642
-0.000602941250305807
-0.0003810722934607126
-0.0004935855235093198
-0.0005961117812786589
-0.0003662171908541922
-0.0004514799007893348
-0.0005277247053694471
-0.0003645544271945531
-0.0004481835730472101
-0.0005228605098388807
-0.0003487297867338933
-0.0004134146710644483
-0.0004699944867978565
-0.0003472692324561766
-0.0004108621540601948
-0.000466427618554363
-0.0003325027907839932
-0.0003827846440822883
-0.0004258865676252812
-0.0003312504174997889
-0.0003807854105025583
-0.0004232079187028976
-0.0003185433313483608
-0.0003587295197219086
-0.0003925716013495798
-0.0003174762518781247
-0.0003571359072945668
-0.0003905080118336936
-0.0003072777949812368
-0.0003404639489841545
-0.000367992923359636
-0.000306360737045107
-0.0003391612507828409
-0.0003663519808306378
-0.0002988426130890473
-0.0003273366817157059
-0.0003506889167080214
-0.0002980369345664633
-0.000326233762544969
-0.0003493292100640686
-0.0002932471560260907
-0.000318856257670829
-0.0003396639221283388
-0.0002925145675479469
-0.0003178781635541962
-0.0003384761713591643
-0.0002904615755361436
-0.0003146969128710349
-0.0003342994991294199
-0.000289765079140508
-0.0003137788023932983
-0.0003331933406949821
-0.0003987553412398579
-0.0006184146708633861
-0.000832587616446817
-0.0003927851209802235
-0.0006172528654933537
-0.000820983689502203
-0.0002909663468707605
-0.0003158484156315715
-0.0002882892190651966
-0.0003118678074928374
-0.0003309136169721261
0.0001922966723864418
0.0002323543907287894
4.86353948381709e-05
5.052990642001107e-05
5.462226223543547e-05
6.13287962330602e-05
7.118265572999893e-05
8.480932752998823e-05
0.0001028864493850223
0.0001260574595661729
0.0001547568815678434
0.0001888795232068412
0.0002271906229065595
4.581207340566727e-05
4.76659912648147e-05
5.153028844782233e-05
5.764253379048522e-05
6.630533418933791e-05
7.783588884524041e-05
9.249402722095741e-05
0.0001103613545776845
0.0001311391406150476
0.0001538208724143644
0.0001761855826363491
4.14429185588461e-05
4.311401680645324e-05
4.648956172976349e-05
5.164884450490245e-05
5.868995718856558e-05
6.766702504742984e-05
0.0002738345205257918
0.0002663548026700965
0.0002003795953313662
0.0001941010607518365
7.850665315133893e-05
9.088314249565037e-05
4.893780737286112e-05
5.082488868657261e-05
4.627289072482612e-05
4.813507762616645e-05
5.20283510778962e-05
5.820596360832616e-05
6.69908636494094e-05
5.491854530136855e-05
6.165421705273009e-05
7.158974842935564e-05
8.538476325726446e-05
0.000103765526199894
0.0001274446460460348
7.872718234139004e-05
9.371036001248591e-05
0.0001120678321904649
0.0001335560133510203
0.0001572251269545285
0.0001569513029834079
0.0001808895721703419
4.713169845559444e-05
5.237409130587762e-05
5.955210619448016e-05
6.873905277292438e-05
7.988492669280875e-05
4.371161744829872e-05
9.269080225144008e-05
0.0001064204716840906
0.0001196274062782927
0.0001040333849487683
0.0003090132812412035
0.0003272704159009758
0.000298569632941252
0.000312363932905097
0.0002082590457491304
0.0001935846729087493
0.0002004084681182036
0.0001855434594006058
4.202272294629684e-05
0.0005075675479401323
0.0002752439687109599
0.0001285998856696222
0.0001164919326719832
0.0001297820122227119
-0.0001063188294391258
0.0004881129444776457
0.0003165036740884903
0.0003144707334738521
0.0001669003088174113
0.0003004376552221076
0.0002909186878744389
0.000145048401439456
0.0001381653854900186
5.626312461488083e-05
1.579098262843727e-05
0.0001387616369671553
4.855693266385857e-05
0.0001257350980971693
0.0001277878481935052
0.0001328473929266618
0.0001228925105575736
9.274118515607224e-05
0.0001169159671714513
-0.0003505472283638553
-0.0005909951320233345
-0.001026543937966081
-0.0002930828204087069
-0.0005847425750409848
-0.001015892599328218
0.0002646490003402655
-0.0002888067833976211
-0.001132199070698777
0.0002044658062464845
-0.0002960089049555158
-0.001128760191308451
-0.000107446801071096
-0.0005844923269262397
-0.001275377196738712
-0.0001295404858618889
-0.0005857028982626636
-0.001268316791339084
-0.0005740026202256614
-0.0009775577973061805
-0.0003371939424535677
-0.00110531368010298
-0.0002352803625032946
-0.0005848603448994
-0.001227345796224022
8.772176632410414e-06
2.456668545846556e-06
2.193712242862057e-06
1.457730448483024e-06
-2.950547443805915e-06
-3.444385510813548e-06
-4.637165064389275e-06
-6.780988556621375e-06
-1.017576445775444e-05
-7.21176556399388e-06
-7.879914033475778e-06
-9.414499904907724e-06
-1.205872335429504e-05
-1.609836769495158e-05
-2.185978741014871e-05
-2.970361028025533e-05
-1.014991297367801e-05
-1.093434590288402e-05
-1.269551311864697e-05
-1.566862777779283e-05
-2.012750896135068e-05
-2.637888529550274e-05
-3.475243838022888e-05
-4.558477955741886e-05
-5.919550497991961e-05
-1.164801782121222e-05
-1.249052159015239e-05
-1.436441022218092e-05
-1.75002966419606e-05
-2.216527173143808e-05
-2.865542074733842e-05
-3.728414121699544e-05
-4.836454757988068e-05
-6.218446065891993e-05
-7.897307251659863e-05
-9.885946682531042e-05
-0.00114280397488251
-0.001018850742000713
-0.002123064407405057
-0.001369801356715217
-0.001087514454646138
-0.00198464504854187
-0.001307984685692452
-0.001130631096908198
-0.002103679160283713
-0.001360572265671482
4.51359937771402e-05
4.855337535203156e-05
5.527723205721203e-05
6.680590728282468e-05
8.517294159345071e-05
0.000113278779992909
0.0001554979776496915
0.0002190763352976958
0.0003161731827951676
4.462193242526954e-05
4.615716459509957e-05
4.992116826362843e-05
5.708324504738516e-05
6.913077552413688e-05
8.806035180424454e-05
0.0001166598646133687
0.0001590362476853461
0.0002221500812423688
0.0003194684217613233
5.026243453921098e-05
5.533553006422429e-05
6.411311987062347e-05
7.804018242792443e-05
9.904297965457268e-05
0.000129759711250561
0.0001738761670350921
0.0002365429043857086
0.0003242062980176362
4.730897923173479e-05
4.824200548744097e-05
5.090454140642642e-05
5.619924867961598e-05
6.523292482199889e-05
7.942164072170841e-05
0.0001006340363754368
0.0001313845063884503
0.0001750976714986797
0.0002364287878494427
0.000321282881011628
7.01908728601115e-05
8.530967983835939e-05
0.0001071289280134791
0.0001377458626040148
0.0001798378964851106
0.0002366883216195486
0.0003118626981970886
4.925939611938775e-05
5.069472933323275e-05
5.420028561512461e-05
6.054412517968648e-05
7.069223894517295e-05
8.586888025234962e-05
0.0001076349085725585
0.000137973060519755
0.0001793591411558613
0.0002347654755049379
0.0003075271255819082
0.0001085992982049251
0.0001366400934957875
0.0001734422011131898
0.0002204769969560155
0.0002785939625609664
4.977446532767586e-05
5.153438670631377e-05
5.552063992784505e-05
6.233293032928648e-05
7.273603582676837e-05
8.767401454289503e-05
0.0001082824846847079
0.0001358732464087196
0.0001718507178074422
0.0002174864449076449
0.0002734416787983758
0.0004588955376362135
0.0004645217602363073
0.0004512868193611535
0.0004484622610160459
0.0004094242024606644
0.0004026784875119505
0.000346983947993476
0.0003389486362236146
0.0005867749247674926
0.000580720189914667
0.0006863313071508639
0.0006858818694794591
0.0006774622303099757
0.0005361066731137591
0.0005262974435264915
0.0004089041160026924
4.693193543609335e-05
4.913475667320689e-05
5.050981993280293e-05
5.391760718621784e-05
4.987989937581852e-05
5.160960074496797e-05
5.555516304893498e-05
6.233757689540781e-05
7.274850952045369e-05
8.777068352349123e-05
4.776832810416417e-05
6.014752098367977e-05
0.0004207262833154802
0.0004944788504119337
0.0004765025651971849
0.0009963077757271868
0.0009911429854470982
0.0008661759600603323
0.0009438472311389911
0.0009217363605293734
0.0008826308958449015
0.0006606080055437549
0.0006392853947668793
0.0004349377287537041
0.001145060489244288
0.001590534931283054
0.0009943187919371058
0.001245944189890719
0.0006728911850653167
0.0004809383665375032
0.0004323698205171544
0.0002975330862204727
0.0004708010652568647
0.0005483794495436558
0.001183901655137196
0.001716800470478892
0.002786153492896573
0.001174293394324919
0.001619785691300025
0.002481768427828726
0.001044565900081356
0.001380202895095471
0.001766810366218069
0.001038748694570595
0.00127541486651486
0.001561226266145456
0.0006940455087352078
0.000672917116316213
0.0006436240930884259
0.0006912181690453064
0.0007178271287203195
0.0005698344823789797
0.00314017967087545
0.003457868818483264
-0.000481134111047482
0.002828734548661444
0.002844104506304157
-0.0008431543426813073
0.00175339759225856
0.001325280367670177
-0.002614835399221707
0.00152847463766081
0.0009738558109241052
-0.00252328504218257
0.0003771989638005257
-0.0002033647590556739
-0.001134877448660079
0.0003062173664655116
-0.000212923330726111
-0.00113238556165027
0.002468547928076925
-0.001178523424097311
0.0008873013232884138
-0.002488931698447122
-0.0002678843565451679
-0.001114062672726457
-0.003683035073134808
-0.003471380092002115
-0.002268424236448142
-0.002113765810619059
-0.003542379029874422
-0.003190262682274189
-0.003582570857293694
-0.003262089756126085
-0.002246728289188084
0.000268436851637514
0.0002981251917570593
0.0002885598863787071
0.0005298538839281752
0.0003447525073449055
0.000106235960792951
0.0001205001604178653
7.913533516146708e-06
-0.0001218539014132057
-0.0003205980844678423
-0.0008984799413186451
-0.0008983393386348402
-0.0004515042458866093
-0.0009084966309862939
-0.00113703264494258
-0.001877066618087406
-0.001899873622064127
-0.00158426950556833
-0.001074904124246985
0.0002535090070254371
1.39995988605622e-09
-0.0001307646007490383
-0.0001674079841043484
-7.767946315029145e-05
-0.0003375894750868367
-0.0003234490907758319
-0.0008982976566586576
-0.0003255050365160849
-0.0008962105559504567
-0.0004632237919388063
-0.0008954214593472928
-0.0004533404450700696
-0.0009058346299587925
-0.001861917438945061
-0.00111269553146228
-0.001796089749769941
-0.001522771796907447
-0.001572858527030293
-0.001050930822985797
-0.001070381671070091
-0.0005848839963934774
-0.0008245176956073448
-0.0004805572432336647
-0.0008972061129679368
-0.00149765936223243
-0.0009599733706254405
-0.001045999515184504
-0.0007764155391790304
-0.0004815589863934719
-0.0008844149826444644
-0.0005862070202885237
-0.0008068744080903876
-0.0004810942663113251
-0.000893955195799728
-0.001238270291715686
-0.001441147071909434
-0.00148733171841453
-0.0009026444542553111
-0.001023207043990779
-0.0009498099621299957
-0.001041406739703034
0.0001829770602467939
-0.0001819691365918556
-4.293307798340439e-05
-0.0003468045239664016
-0.0008946653773242236
-0.0004695784141395451
-0.0008900380805692222
-0.001768114940749036
-0.001501533357562121
-0.001041914323031565
-0.001421650543169107
-0.0008849703291987676
-0.001014084514995755
-0.002152406971824741
-0.001746267075940518
-0.001639408383777765
-0.00164710676074699
-0.00155023662663274
-0.002019979548109458
-0.001672442687784688
-0.001732457968125529
-0.001322222739029602
-0.001572976594408016
-0.001627035476253211
0.000995212034060261
0.001025243637010201
0.0008303835553320805
0.0008240250018269899
0.0008495601046419484
0.0008494617011028746
0.0009820846018270242
0.001018940901172748
0.001002122829750774
0.0008368652082467834
0.000875921186991537
0.0008525942313453974
0.0008327688540883478
0.00103519427367407
0.001330682821445381
0.001258138421279259
0.001803475302076734
0.001337336410327585
0.001561710405042054
0.002288946880042418
0.0017216589965308
0.002128558421765042
0.00162426769094663
0.0008753976108552539
0.001181040518816778
0.0009564706034391134
0.001419319789756747
0.0009661063751481446
0.001021152879582506
0.001491989024436269
0.000910747598893691
0.001461702966541048
0.001017904168405931
0.0006047138090792799
0.0008879095869303359
0.0009022619544215469
0.0005541447607054267
0.0003739587529255424
0.0007525913927199489
0.0008880455743810819
0.0003076960142655773
0.0005503651363694709
0.0003550943362841534
0.0001118051755270024
0.001187173343783303
0.001079019215018385
0.001108516776499344
0.001426564959411516
0.001373955307066579
0.001422510143866716
0.001355531496385439
0.002046741253116434
0.001475190693719237
0.001785712339517247
0.001706676097053264
0.002035824443869516
0.001452600675153385
0.001746768166467995
0.002811642364053668
0.002033151955126204
0.002101629880138611
0.002428433839755959
0.001883431924450828
0.002402729852217554
0.001837920082656962
0.001156664639938281
0.001073716108033729
0.001043936637559634
0.001370865380632667
0.001284139591140569
0.001398011463302841
0.001342817672285338
0.001898067229044937
0.001367809987924822
0.001609656487074595
0.001683050263499529
0.001970102156466713
0.001437237407196162
0.001721248653020536
0.001800213302992266
0.002637001113214828
0.001988851327433553
0.002193814115950335
0.001679243156764728
0.002343581005332714
0.001808220052229037
0.0009154638015389728
0.001294090604411235
0.00127810176393507
0.001019620264971688
0.001629244070159633
0.0013586976912993
0.001592495380295871
0.001065834316380885
0.001153762969175634
0.001827388166869286
0.001091132952071768
0.001131138459691168
0.001701070811803958
0.001658792469083608
0.001163487532817097
0.001008814607574394
0.0009138568048825832
0.0009190282088108528
0.001206180380876632
0.0009730819067719113
0.001265556036068049
0.001004593459088807
0.001464019185523408
0.0009858293955060946
0.001054979825803577
0.001343539399122898
0.001568462556904402
0.001050931952650692
0.001134681612345804
0.0009562393529218333
0.001727668588341434
0.001065403014196239
0.001512265224619286
0.001055032316828212
0.001631266364326264
0.001142704561685777
0.000732268566936522
0.000978753487309036
0.001021149306817909
0.000468746340553475
0.0009074749689594653
0.000941929417865937
0.001017385681945195
0.0006192168332177332
0.000653326717382309
0.0009072299227172768
0.0009320837258462286
0.0007313998766631749
0.0009683700527838522
0.001003415628584366
0.0003990206579220133
0.0006259562348240397
0.0004557859990407792
0.000791751846880227
0.0008853900992580463
0.000920816949423822
0.0009985053966211452
0.00319517341055718
0.00205116688845414
0.002127916210696881
0.003429088950098541
0.001937093161749897
0.003379525112204333
0.001838664519749
0.002954892238687107
0.001743147240578201
0.000582664470574996
0.003362849113389165
0.00288266948056529
0.0016406623591737
0.000490653194113071
-0.002603139936491279
-0.0004320880233910638
-0.00261606783647243
0.001787383038734507
-3.51329783852144e-05
0.001681206636281772
-0.0001123460353632304
0.001792217044098
0.002963625695892786
0.001515177363370237
0.003015698156151125
0.002001655836491071
0.003096643397893849
0.001775765951937188
0.00229756270222779
0.001307116878062073
0.0002026261990664588
0.003151500720178519
0.002480569263343324
0.00157540960352895
0.0004329418362870322
-0.0007345147438523548
-0.002540328863733286
-0.002593087848967579
0.001123452725485019
-0.0003486355434677408
0.001449022422883904
-0.000160348216752667
0.001820155474022484
0.00102037505775775
0.001062418366642677
0.001538445557682734
0.0006509428589837493
0.001457450452914436
0.0006074125041930802
0.0001895242499869517
0.000430182876113708
-0.0005286065284515582
0.00124274072377825
0.0001219467844963286
0.0003886362491604709
-0.0005527735019401628
-0.002416198198388281
-0.002637952148321012
-0.002447350930764806
-0.000378383948512673
-0.0009485761466365559
-0.0004318474238487328
-0.0009624029496568855
0.0008791048413667528
0.001191099936136648
0.0004640880074473021
0.001710369451943188
0.0009933561505890128
0.001405700966990997
0.0005796344616639592
-8.933491824707412e-05
0.0002531681477627619
-0.0006267359158193043
0.001190191642044723
7.96151633902517e-05
0.0003622277650262933
-0.0005677190487903198
-0.002598673428455867
-0.002304305157787374
-0.002395392164841175
-0.0005943678987466301
-0.001001021093222377
-0.0004649594642730957
-0.0009706211241612063
-2.450738410152009e-05
0.0008269931018655395
0.0008626355033740094
0.000440144837713619
0.0004051134520861147
-0.0008729747145651079
-0.0008704144536717832
0.0002265095340641528
-0.0006609782319569236
0.0001938533190446577
-0.0006771620290522736
-0.001138151667191132
-0.00198392005562018
-0.002008792092471005
-0.002313349180116714
-0.002343672981010678
-0.001037258644806178
-0.001044390147971537
0.0003638939583921743
-3.578854219755289e-05
-8.254570246777749e-05
0.0007073735855077702
0.0002898241561761668
0.0008041335628301452
0.0003827819366388455
-0.0008742879497005493
-0.0002522017203631813
-0.0008781766825224313
8.749133791335618e-05
-0.0007257016898706637
0.0001731246283493455
-0.0006870630234540059
-0.001967401720545236
-0.001120022822448755
-0.001895647719696655
-0.002205156000077228
-0.002293158679059744
-0.001061988073276978
-0.001048401878976669
0.002589926965907986
0.001705678552615086
0.002482290835377192
0.001410138725824297
0.001669163398427237
0.001199962586602354
0.00011398657939198
-0.002513883627078415
0.0007469743300929799
-0.0004194916481699338
0.001453346934206358
0.0008318034635947395
0.001104480710857501
0.0004172493863991624
-0.0001543730542544242
0.0002093393780346968
-0.0006491604833957992
-0.002265275401429187
-0.0006428352302021125
-0.001011552974553546
0.0002816878133455569
-0.000101376494474699
0.000667214193445207
0.000252106082421226
-0.0008789922921109975
5.305506969275998e-05
-0.0007401620783043986
-0.001865155578555626
-0.002167622371277373
-0.001066035511567736
-0.00361556835329586
-0.003691282882374233
-0.003674207000465817
-0.002941282955624706
-0.003530905624628362
-0.002991097917925727
-0.002301299942194604
-0.002761791678197717
-0.002807139142357098
-0.002549950526687119
-0.003333493438818662
-0.002708814428692349
-0.003653782248034286
-0.00340625719212475
-0.003576578987473947
-0.003432046713882631
-0.002767822825571151
-0.002908500606099517
-0.002153194990348608
-0.002603754317692131
-0.002731939074601713
4.368836957929492e-05
4.384906750483236e-05
4.4324216489643e-05
0.0005691363187538442
0.0005749674290748632
0.0009894711675071141
0.0009881221313707621
0.0008202947926466463
0.000813965189125679
0.0009847588098401009
0.0009832169439085781
0.0008239413687281265
0.0008581787688730316
0.0009184279531527571
0.000865042337255514
0.001162253752392339
0.00137596300296871
0.001661047613920368
0.001913442352302676
0.002518071622016319
0.002292043977960365
0.001196126621467158
0.001197794157912515
0.001455878757067849
0.001452953955172297
0.001773834848641252
0.00214747934838493
0.001765296115125725
0.002137411083901147
0.003042728492730543
0.00306914339903497
0.002593281312618656
0.002568028223346366
0.001190639635217315
0.00117297740158982
0.001411094922339304
0.001434071191442544
0.0016882051604018
0.002006539780203063
0.001744997529046191
0.002075806920221207
0.002723417672494599
0.00288710149064491
0.002358700482810298
0.002509480072124199
0.003521593439312912
0.003581365517820266
0.003976729722542066
0.003920224663964628
0.004198337202464959
0.003857983835543855
0.004084460067945504
0.003766529296113754
0.000305977506276225
0.0003850933782586295
0.002768413437778986
0.002628813375814693
0.003181043804861158
0.003444908805208864
0.003385867257889078
0.003597144820202898
0.003463178821073588
0.003027670034049028
0.003831318214058127
0.003258630076675225
-0.0002594231479769324
-9.141006151517304e-05
0.001872143647697471
0.002313431039197623
0.002917934954679434
0.00289263564966927
0.003013434559889786
0.002236455745761769
-0.0007866826633677415
0.001363854352948704
-0.002925183488922141
-0.002937872436414475
-0.003460879813829724
-0.003464682309138642
-0.003413930866475297
0.0003749056717008073
0.0004725554935879093
0.0003219331405494169
0.0004754821783344155
0.0002500107731567364
0.0002757023071194141
0.0001193246968596703
-0.0001019547329986115
-3.223611177320624e-06
2.712381231535297e-05
0.0003751263889971194