/*--------------------------------*- C++ -*----------------------------------*\
  =========                 |
  \\      /  F ield         | OpenFOAM: The Open Source CFD Toolbox
   \\    /   O peration     | Website:  https://openfoam.org
    \\  /    A nd           | Version:  7
     \\/     M anipulation  |
\*---------------------------------------------------------------------------*/
FoamFile
{
    version     2.0;
    format      ascii;
    class       volScalarField;
    location    "0";
    object      Phi;
}
// * * * * * * * * * * * * * * * * * * * * * * * * * * * * * * * * * * * * * //

dimensions      [0 2 -1 0 0 0 0];

internalField   nonuniform List<scalar> 
12686
(
57.3402115876799
56.00688309871733
54.67355927671812
53.34023973954403
52.00692384378347
50.67361059534518
49.3402985222077
48.00698550392887
46.67366855397486
45.3403435559061
44.00700496558576
57.34018947189696
56.00686048964689
57.34008997509656
56.00675844198207
54.67342848330799
53.34009962527431
52.00677110075436
50.6734417795293
49.34011007264623
48.00677381051953
46.6734300972297
45.34007514921153
44.0067041366057
57.34006993672948
56.00673801228753
54.67340726716179
53.34007722070743
57.33997758017622
56.00664346025754
54.67330830536768
53.33997160202878
52.00663253819151
50.67328995308913
49.339942271239
48.00658742301619
46.67322275722927
45.33984495610564
44.00644997061151
57.33995941556159
56.00662498874322
54.67328921951623
53.33995159401219
52.00661130138236
50.67326718599985
57.33987613959544
56.00653986818108
54.67320040578005
53.33985723510335
52.00650955190789
50.67315623229922
49.33979579187085
48.00642634029818
46.67304553757437
45.33965056178205
44.00623810319455
57.33985962763786
56.00652311780565
54.67318318005063
53.33983930061095
52.00649068197919
50.67313621203441
49.33977442575674
48.00640346320594
57.33978704515329
56.00644902481409
54.67310607144908
53.33975768604619
52.0064031032605
50.67304127305344
49.33967083967919
48.00629012181736
46.67289709959018
45.33948941666867
44.00606440849668
57.33977195433153
56.00643374994034
54.67309043110934
53.33974150453208
52.00638621450789
50.67302352590955
49.33965210496308
48.00627030161191
46.67287613910301
45.33946731877298
57.33971138482156
56.00637198087453
54.67302627314172
53.33967379192718
52.00631382497735
50.67294541018855
49.33956732938731
48.00617810663401
46.67277601583555
45.33935910392555
44.00592523726048
57.33969747836046
56.0063579324501
54.6730119440194
53.33965905013783
52.00629854946681
50.67292949587373
49.33955069338347
48.00616069585121
46.67275781601846
45.33934014999748
44.00590562450179
57.33964998576316
56.00630952660133
54.67296172305625
53.33960613739964
52.00624211214131
50.67286877080876
49.33948502218299
48.00608957089913
46.6726809381664
45.33925749712977
44.00581752787929
57.33963702513207
56.00629645550235
54.67294843449928
53.33959253155901
52.00622810045036
50.67285428063656
49.33947000222292
48.00607399732304
46.67266482147903
45.33924088948394
44.00580053037427
57.33960345504127
56.00626223604709
54.67291292616628
53.33955511625017
52.00618819642816
50.67281136240184
49.33942362663166
48.0060238367949
46.6726107043911
45.33918284667977
44.00573884509202
57.33959120202096
56.00624989488556
54.67290041226648
53.33954235223971
52.00617511609904
50.67279791500275
49.33940978155793
48.00600958864702
46.67259607826994
45.33916790345026
44.00572368618065
57.339572214962
56.00623050492734
54.67288022291444
53.33952098088222
52.00615220359209
50.6727731382965
49.339382870111
48.00598034504903
46.67256440297682
45.33913382278688
44.00568738176695
57.33956043256156
56.00621864864609
54.67286822240664
53.33950877296142
52.00613973601949
50.67276037377748
49.33936979049577
48.00596695566554
46.67255073693502
45.33911994498595
44.00567339221605
57.33955653099705
56.00621458018651
54.67286382190177
53.33950387924329
52.00613419510663
50.67275404347919
49.33936254676659
48.00595870091635
46.67254141028058
45.3391095340783
44.0056619458786
57.33954498351434
56.00620296576484
54.67285207711733
53.33949194776906
52.00612203141167
50.67274161666681
49.33934984452528
48.00594573349325
46.67252821430672
45.33909617598146
44.00564852452175
42.67364551268356
42.67331106159871
42.67303300433614
42.67280440523808
42.67261917034988
42.67247217974959
42.67245207487668
42.67235929699635
42.67234206618493
42.6722620937561
42.67227732264963
42.67222393031252
42.67220996625776
42.67219760661724
42.67218425471227
53.34025249785623
52.00693765971513
50.67362576356158
49.34031535225195
48.00700431631847
46.6736896703628
50.6734550105617
49.34012455810397
48.0067897635077
46.67344771611722
45.34009460074297
44.00672553065152
48.00660100062755
46.67323752563629
45.33986099689029
44.00646731185152
44.00625230549005
45.34036728030361
44.00703155261526
42.67367511767801
42.67333441559975
42.67305159682198
42.67281938610986
41.35695590695673
40.05686461181873
41.35692334026763
40.05682940608479
41.35658167922568
40.05646085709312
41.35655651042357
40.05643419859296
41.35627631697656
40.05613714057226
41.35625664178307
40.05611667109765
41.35602921259704
40.05587900571088
41.35601361609061
40.05586303638592
41.3558316144471
40.05567508603661
41.35581903660631
40.05566238923085
41.35566614174214
40.05550626408096
41.35554964201406
40.05538822409389
41.35553239472858
40.05537122412283
41.35546554501752
40.05530351619121
41.3554504364239
40.05528875109061
41.3554109997722
40.05524880132059
41.35539723352577
40.05523542986401
41.35538417465786
40.05522195859484
41.35537105550102
40.05520925634914
40.0573193395879
57.34022280394518
56.00689456811486
54.67357125709685
56.00676880102851
54.67343924578203
53.34011099778979
52.00678329469063
52.00664331878274
50.67330152013778
49.33995477460767
49.33980664692811
48.00643797351602
46.67305801230591
45.33966390823705
46.67290775571853
45.33950066088831
44.0060762029546
44.0059352119785
42.67263142964278
42.67248241259078
41.35567650538355
40.05551659549527
41.35555841374425
40.05539687507168
38.75672163394683
37.45651400337979
36.15623005529357
38.75668449112627
37.45647626736011
36.15619369746997
38.75629578386955
37.45607822633738
36.1558013439006
38.7562681798064
37.45605050443704
36.15577454332488
38.75596033158254
37.45574070039677
36.15547433201822
38.75593949184906
37.45572007177174
36.15545462561921
38.75569673614408
37.45547921159233
36.15522435634295
38.75568072473567
37.45546358438349
36.15520962071854
38.75549100644748
37.45527749764475
36.15503363231061
38.75547844869952
37.45526539634859
36.15502235335838
38.75533266865049
37.45512370708136
36.15488949276961
38.75532257211627
37.45511408523472
36.15488061358715
38.75521398465451
37.45500928070649
36.15478297746061
38.75520561644061
37.45500138077867
36.15477574740573
38.75512936792564
37.45492815137642
36.15470784115989
38.75512216920558
37.45492140660421
36.15470170851733
36.15465988507118
38.75506848529508
37.4548701529863
36.15465442362467
38.75504221098037
37.45484512449577
36.1546313803608
38.75726238325804
37.45707851370964
36.1567928075834
38.75721156298132
37.45702666251896
36.15674775023391
38.75518918122293
38.755108009992
37.454908145304
36.15468965457853
38.75505573642122
37.45485827525076
36.15464367577472
38.755030136773
37.4548339062323
36.15462125297666
57.34010013348401
57.33998678485782
56.00665282219249
54.67331798219902
53.33998175183181
57.33988450348001
56.00654835414593
54.67320913522666
53.3398663277883
52.00651912438163
50.67316639540692
56.00645676016195
54.67311399386861
53.3397658856196
52.00641166530235
50.67305027546607
49.33968034938211
48.00630019001905
53.33968125839901
52.00632156480351
50.67295347750019
49.33957576713926
48.00618694273255
46.67278525850895
45.33936873640084
50.67287611202221
49.33949263518021
48.00609746839901
46.67268911546329
45.33926592833008
44.00582616212643
48.00603105765378
46.67261812001914
45.33919042655506
44.00574653801459
45.33914085809275
44.00569447647801
42.67236805507801
42.67228505480256
42.67223101485485
42.67220437790148
41.3554732197055
40.05531101977621
41.35541798659674
40.05525559019588
41.35539083009149
40.05522840450279
38.75507496020554
37.45487618719797
38.75504833989164
37.45485082028657
36.15463652322092
34.85586370830315
33.55540861385592
32.25486750824944
34.85582815542822
33.55537691674779
32.25484218039197
34.8554611594851
33.55505667770556
32.25459227953007
34.85543614323151
33.55503494743236
32.25457533549243
34.85515941881469
33.55479689516134
32.25439133881943
34.85514141091144
33.55478150528955
32.25437947420774
34.85493174230666
33.55460305464808
32.25424249369098
34.85491846055119
33.5545918253757
32.25423388534166
34.85475977438981
33.55445786527516
32.25413160809157
34.85474971375217
33.55444942476448
32.2541251577008
34.85463082474836
33.55434968609301
32.2540493232693
34.85462297039309
33.55434313427399
32.25404432375952
34.85453610456192
33.55427060226631
32.25398934833671
34.85452975139761
33.55426532500435
32.25398532254223
34.85446958396591
33.55421525592723
32.25394746313793
34.8544642224695
33.55421081553237
32.25394407397225
34.85442725592041
33.5541801214065
32.2539209104528
34.85442249785633
33.55417618810404
32.25391790588078
34.85440667243165
33.55416305942494
32.25390802596436
34.85440219992474
33.5541593654907
32.25390520260705
34.85640655285699
33.55589340332219
32.25525493681729
34.85635455923978
33.55584547190658
32.25521569427691
34.85441313555811
33.55416844873449
34.85439339349035
33.55415209189039
32.25389964185555
45.34143299689352
44.00827478603154
57.34060859834442
56.00729188636342
54.67399199443634
53.34070929381191
52.00744427028382
50.67419742204685
49.34096909262911
48.00775920662487
46.67456686035511
45.34138969948427
44.00822299357792
57.34047360853073
56.00715256951231
54.67384385318041
53.34054748529154
52.00726342238575
50.6739914398758
49.34073095925024
48.00748079191442
46.67423876957963
45.34100122428119
44.00776227909456
57.3403403029186
56.00701531940989
54.67369859053937
53.3403898951687
52.00708882144236
50.6737946614795
42.67512027870794
42.67505830408329
42.67456130256573
42.6745129216191
49.34050625564761
48.00722177350161
57.34062345301863
56.00730720887788
57.34048719461447
56.00716654260123
54.67385861389005
53.34056346167863
52.00728108410191
54.67400827296703
53.34072705809434
52.00746411454895
50.67422003031888
49.3409952666296
48.00778989564817
50.67401131246955
49.34075363791783
48.00750695306471
46.67426917697637
45.34103672387369
46.67460319064428
44.00780377250179
54.6737119097318
53.34040419374861
52.0071044645363
50.6738120457751
49.34052581432663
56.0070279996854
48.00724397745991
46.6739637690995
45.34068104994557
46.67393841661785
41.35862010547054
40.05875417824475
41.35854636446227
40.0586671852171
41.3579617180431
40.057988162154
41.35790578102909
40.05792435584691
57.34035266796942
37.7850104504717
37.78382901795395
36.48368625620126
45.34065202983154
44.0073898037728
36.15749784440219
36.64788335719231
38.75882821887801
37.78408330316555
36.48397173229333
38.75872528592376
37.78393551279398
36.48380984533501
38.75795058008118
37.45781649030811
36.48166197690998
38.75787925141052
37.45774143081076
44.0073566155118
42.67404376678417
42.67408154255389
41.3574113856256
40.05736644130318
41.35736885097418
35.18206614732432
33.88154780199179
31.93043742845637
35.18188424448664
33.88151472679644
31.93041193827099
35.34803863122706
34.04753295355378
32.74652133749503
35.34772592131061
34.04747127310289
32.74646323408155
35.18366221404955
33.88246622988511
31.76839240799366
35.18359047215825
33.88233067970359
31.76837349838393
33.88139365396695
31.93032916456317
34.0470930428548
32.74610891574514
35.18279617407003
33.88222778273857
31.76825694943476
57.33979468631868
57.33971842389072
56.00637909254599
54.67303352840727
57.33965654413947
56.00631614144262
54.67296844907997
53.33961302572024
52.00624920820418
57.33960965387686
56.00626847991474
54.67291925831049
53.33956157626984
52.00619481828378
50.67281817223909
49.33943064039666
57.33957817471338
56.00623650241149
54.67288629407777
53.33952715805209
52.00615851355827
50.67277960028334
49.33938949364087
48.00598712773241
46.67257132830995
57.33956237141771
56.00622045478764
54.67286976308608
53.3395099158233
52.00614035043026
50.67276033348166
49.33936897796078
48.0059652683666
46.67254809564622
45.33911630386068
44.00566875005657
31.27999712215653
31.27979153789033
31.44493998091385
31.443122059758
31.27990846637336
31.44461826559395
31.44299750501603
31.27997819096315
31.44489448270106
31.44310328456465
54.67455882254701
53.34133895421963
52.00816355333878
50.67503878576627
49.34197297858095
48.00897708421138
46.67606529099312
45.34325583009335
44.01057212807803
56.00779827104322
54.67453655269254
53.34131392775125
52.00813452972877
50.67500419672834
49.34193076846795
48.0089244739959
46.67599841587945
45.34316917881009
44.0104577638396
54.6744369906181
53.34120215049552
52.00800510755376
50.67485034111225
49.34174371682365
48.0086926358477
46.67570616398218
45.34279507673734
44.00997167785539
57.34098967329812
56.00768704603933
54.67441610154274
53.34117882591922
52.00797827855028
50.67481868254548
49.3417055315369
48.00864569145139
46.67564745606481
45.34272048202484
44.00987547420937
52.00783158113125
50.67464596774553
49.34149794217337
48.00839181686344
46.67533235335674
45.34232432325992
44.00937160528805
57.34087027545834
56.00756293203326
54.67428225894659
53.34102962216355
52.00780707871726
50.67461737179754
49.3414638948606
48.00835058807927
46.67528170255035
45.34226131754347
44.00929240040293
49.34124562675543
48.00808744203135
46.67496048354759
45.34186526906159
44.00880027216082
57.34074200595474
56.00742990630401
54.67413945774041
53.34087148055806
52.00762716301075
50.67440799283117
49.34121563187005
48.00805169512116
46.67491737144111
45.34181278605027
44.00873595005697
42.67804487165251
42.67789174479529
42.67724896644303
42.67712340149831
42.6764753365242
42.67637500272693
42.67576017483985
42.6756810781452
41.68732567101725
41.6872266579382
41.03674136977131
41.03664928524265
41.03633991630285
41.36029060790757
41.36016362429234
41.35929911563235
57.34100828113468
57.34088768027831
56.00758098628116
54.67430165066781
57.34075814582702
56.00744660236082
54.67415729487915
53.34089110302774
52.00764930898723
50.67443353508042
56.00770639773144
53.34105112002197
41.35939595310142
40.05968616236557
40.0595691956765
39.90175495693757
39.90151744240571
40.38792495688315
39.73764577054791
39.73752190820678
39.73711190682913
39.73563428774138
39.73551699713281
39.08423227565866
39.25178838669064
37.9532760567466
39.25018638397347
37.95110010865528
37.7857193126948
39.08448692108369
37.78469205086012
36.48466125236017
39.08442847664025
37.78517374032218
39.25253650082146
37.95443254339254
36.0074967862943
39.2523704324876
37.95351813650971
36.00613413761141
39.25070276967234
37.951916288341
35.67854571161195
39.25062942559271
37.95127247398612
35.67774947797093
39.08585095521101
36.97358622158112
36.64861625144939
38.43576731604138
37.78591834907778
36.64830493842859
35.35857935767583
34.06065968128441
32.10977968268411
35.35739696615491
34.05877507851037
32.10775036413893
35.35372906257344
34.05433198134936
31.77641118445716
35.35288547472067
34.05301021349062
31.7753737585074
35.34855252681213
34.04807832481045
32.7470403967591
35.34819987547303
34.04800767949305
32.74697293167857
34.0575980193062
32.10552723099813
34.05267123773233
31.77503628888379
34.04757581916979
32.74656301893345
31.45782388675524
31.45056583497944
31.44535012780966
31.44497360035977
31.45449182807663
31.44926851381038
31.45520199072554
31.44958631170825
31.44529669001598
36.4844573100909
35.67279442263879
36.48457807946424
36.64811341953925
35.67304293159997
35.67178272782502
35.67161407193957
35.34673941961221
34.37270249428906
34.37136074514805
33.07182683957533
33.0719184171279
34.04619073949447
33.07054077117362
32.74661039899434
31.77038798608588
31.7704640411727
31.76933542131298
32.74527561625324
35.34797994571134
35.34669789167015
34.37264107611377
34.37237595538473
35.34651933198932
34.37113670823587
34.37131854715955
33.07176706445048
34.04720536694237
33.07151021166004
34.04596787893959
33.07033169315408
34.04614889825876
33.07050146156953
31.77033842686343
32.74621380513192
31.77012622616954
31.76916728340802
31.76930377754185
32.74507411537235
32.74523773005703
33.88249441047788
33.06934140064405
34.0458241878852
33.07019579834624
31.76905911665101
32.74412820949972
32.74494337351492
33.23196119597645
34.04562623354317
33.07001363006346
33.88241080662106
33.06931650924618
34.04578736617155
33.07016146467574
31.76829102452664
31.76891272575265
31.76903160792984
32.7439419967042
32.74476779136575
32.7441059327132
32.74491033331403
35.34761839289455
34.37226383597847
35.34643030347267
34.37105911294245
33.07140207623254
34.04589130023492
33.07025926923848
31.77003727087728
31.76910959169629
32.74500452732146
31.76886240644046
32.74389376378365
32.74470663980875
31.44500982557729
31.44397613624652
31.44372421609492
31.44377029063338
31.44354527958199
31.44469980650672
31.44382284953127
31.4439472805176
31.44302801979779
31.44359103148198
31.44369918712573
39.90179582180991
39.57584022054163
40.55099708682535
40.55108554824455
40.38783658666929
40.38789944985189
39.90140120170071
39.57576686033345
39.57545144682677
40.55093249994189
40.38818338553721
40.38771405092515
40.38754145116781
39.25057472852156
38.60228432974741
38.27635269272528
37.30377429615078
37.95161729253373
36.9774012599328
36.00530969224047
35.67830537264236
36.6549140217638
36.65265017840558
39.08677662513819
38.27587104847032
38.27453289321477
36.97676390080693
37.9496733011404
36.97504529563119
35.67748050534399
35.67533478131749
36.65196843410175
36.65014562744536
36.97317988133903
37.94924260763769
36.9745357169633
36.64819685127024
35.67313910424246
35.67472045374501
36.64960960758926
36.48470489962951
36.6481634841015
35.67310027873823
35.67182270392268
39.25260898972999
39.25112549594233
39.25123685131527
38.60345202505782
38.27718130958309
38.60339455875143
38.27703576535254
37.30541789991414
37.95251003231786
36.97851408338396
37.95432928426714
37.30533567017419
37.95235267371795
36.97831627898067
36.00761439351417
35.67950754898382
35.6797712435286
36.65654833546244
36.65384548066596
36.65640030188639
36.65363241068053
39.2519621045958
39.25104873953268
39.25071502655716
38.60271237633352
38.27652769983969
38.60305889583553
38.27694033871038
37.30437026010424
37.95180533808023
36.97763381582213
37.95409341835169
37.30485823260027
37.95224971367652
36.97818727747833
35.67860815792204
36.00681872244511
35.67933630572682
36.65525184937854
36.65289928191316
36.65606372759906
36.65349359318793
39.24941879677331
38.27663142215368
38.27649810086761
38.27501281346991
36.9777687560263
37.95177270418848
36.97759059836778
37.95018344411129
36.9756524132309
35.67877840371828
35.67607631339182
35.6762364362263
36.65304284177995
36.65285184429507
36.65078632667097
39.25031713947462
39.24936195946309
39.08700196957537
38.27603213420061
38.27465989087439
38.27641061989924
38.27494629405504
36.97697442104624
37.94980649413108
36.97520099819738
37.95167870710526
36.97747430878896
37.95011264290984
36.97556766432027
35.67552334857488
35.67839441843128
35.67597184647148
36.65219293668331
36.65030951527132
36.65272728778272
36.65069667485172
37.94835636734436
37.94970459163358
36.9750831396215
35.67360065036851
35.67537827894284
35.675519808422
36.65018514337429
36.97328374907983
36.97353214299626
37.94936603376075
36.97467663941703
37.94830031071071
37.94964031605044
36.9750070069294
35.67325715872219
36.64855952035226
35.67353620308852
35.67488808780767
35.67528584070709
36.64975722423775
36.65010488075043
35.35878975849409
35.35475539109784
35.35503718024842
34.70973931834373
34.38059303467356
34.7095745673869
34.38025662803294
33.41103102322861
34.0556625178811
33.08034494905437
34.06037167182803
33.41081398942181
34.05530912517217
33.07995265382767
31.77779124128263
32.11002817940193
31.778175809151
32.7610555794843
32.75501651680265
32.760696747004
32.75461793939106
35.35379727760814
34.70819005941081
34.37912402948449
35.35810366023449
35.35457260883145
34.70863271214979
34.38003921575316
33.40901515219829
34.05412339081414
33.07864991020612
34.05972487757236
33.40958549042902
34.05508102487592
33.07970041456056
32.10838832574777
31.7765302265896
31.77754510167359
32.75873818534444
32.75329878384306
32.75989747088148
32.75436197915972
35.35397630093469
35.3511225872451
35.35129013411688
34.37932654723732
34.37623170402819
34.3790368088358
34.37604472119256
33.07886723482665
34.05112083501523
33.0754345396981
34.054029602449
33.07853831711962
34.05092898497812
33.07523637271685
31.77333875863961
31.77672529804548
31.77351610868419
32.75351476152118
32.75007021048893
32.75318284141244
32.74987360904625
35.35054532660318
34.37805702741838
34.37540488905924
35.35356848234368
35.35101337003132
34.37884924993362
34.37592314470481
33.07743964760674
34.05027398369383
33.07456428902669
34.05383408416441
33.07832636624389
34.05080434892515
33.07510795007706
31.7762096140482
31.77274200954041
31.77322416188033
32.75207745659059
32.74920824444051
32.75296919211709
32.74974630071073
34.37324423042198
35.35039345566468
35.35054088507606
34.37539719275718
34.37523498002019
33.07235947507917
33.07246558989235
34.05026508904314
33.07455193221205
34.0500994615494
33.07438332580877
32.74714393933675
31.77083381599549
31.77092304070402
31.77257913961087
31.77272736874423
32.74919494539817
32.74902845879019
35.34848625974405
34.37317412864849
34.37287224438528
35.34988397467084
34.37467794168452
35.35029724201345
34.37512936884147
33.07229029728726
34.04770383749297
33.071993807317
34.04953186731672
33.07380897533174
34.04999171023812
33.07427388085531
31.77077575798212
32.74668409154439
31.770527902403
31.77207773947887
31.77248317142756
32.7484624011254
32.74892046551317
35.35650690918815
35.35347578371721
34.70658632914461
34.37874793494344
33.40698794459691
34.05373107610993
33.0782236021259
31.77612323560816
32.75732653892927
32.75286866609912
35.35260136372669
35.3503489388388
34.37773015840876
34.37518875419583
33.07707788224894
34.0500532511774
33.07433938639889
31.77254398755007
32.75171464559092
32.74898608984155
35.34807871184776
34.37274488346713
35.34971012404475
34.37448908086182
33.07186937300003
34.04933984040201
33.07361588344503
31.77042435808306
31.77191042546902
32.74827247780056
31.45187851079055
31.45818885133673
31.45224476274958
31.44767403192433
31.450863170713
31.44783952017449
31.44543228199705
31.44696594603923
31.44710373056289
31.44634550975071
31.45029602734658
31.44693398580131
31.45702434058859
31.4506812746681
31.45164442055711
31.45037522426547
31.44711812623463
31.44756716609815
31.44506873995204
31.44650056184811
31.44687678842597
57.34111614501567
56.00781881012842
57.34109644070438
41.68780985768363
41.68769927207719
39.90214465207757
39.90218808576879
40.55131951440403
40.55141209010331
39.90189034944189
39.90176816789266
40.55125117039083
40.55086075507326
39.9013044599204
40.55072303110568
39.25220129197923
38.6027569243349
37.95385712514469
37.30443704695456
36.00623587229915
36.65573550471427
39.25300154147873
39.25307927746855
38.60401415503278
38.60395211138975
37.95511260027204
37.30623562567587
37.95500024239787
37.30614534406089
36.00867887784533
36.00881090656551
36.65754306841869
36.65737882286952
39.25282357813458
39.25238673003125
38.60321707242073
38.60359014951917
37.95411941747492
37.30508775033216
37.95474379749236
37.30562177821948
36.00715399701887
36.00791895728278
36.65610810108579
36.65700577207704
35.36000284505626
35.36024228550004
34.71146686375388
34.71127653266569
34.06271912809548
33.4133957668285
34.06238061023983
33.41313590736127
32.11254454923031
32.11285618140487
32.76373270845333
32.76329394574999
35.35866135366474
34.70968264994518
35.35946229801618
34.71019114420765
34.06051252758385
33.41099376495951
34.06162212257936
33.41167087439057
32.11003695541554
32.11082355643735
32.76091816629684
32.76232190031744
35.35765625472084
34.70784942914916
34.0591447023699
33.408603954238
32.107325297255
32.75922141620622
31.54148812403489
31.54188696499406
31.45638683638116
31.45726895656345
31.45956725667287
37.78438188877594
37.13504057896686
37.13436692115982
36.6477884519156
36.48430463745245
35.67268948062028
35.83419815070904
35.83300355153057
35.8335504330873
36.48314772509406
36.3225420289947
36.64742062414527
36.32286953801427
36.6479762075417
36.32245556105062
36.64751878448069
36.32296136903105
36.48400525845775
35.83384345313311
35.8338754189891
35.83325996185655
35.83323516704019
36.48337965099638
36.48340612106062
36.48390538387186
35.83377554166551
35.83311380857855
35.83367603920355
35.833182996157
36.48325114300979
36.48332248463437
33.88156624082826
33.23122078049298
33.23123778074518
33.88196381422845
33.88198608495836
33.23160864880867
33.23163009598842
31.93074986211671
31.93045284890369
31.93076662512633
32.58085845872231
32.58087342426207
32.58120617363834
32.58122517054
33.2311903389092
33.88145760081012
33.23114087385516
33.88185648950719
33.23151066876
33.8819202536837
33.23156631419174
31.93037118328758
31.93071747917727
31.93066976840695
32.58083457929597
32.58078659609824
32.58111388874606
32.58116919176945
35.02251328465916
35.34756750699463
35.34808308379245
35.02295331290712
35.02247355877647
35.34760661949537
35.02299865887628
33.72188136586097
34.04757983016106
33.72233151940659
34.04704027640526
34.04708125291267
33.721840573488
33.7223783107235
32.42077191248944
32.7465655828161
32.42117958357863
32.74605882326694
32.74609703515886
32.42073527326948
32.4212221312908
35.02227850185889
35.34782268864241
35.02263445354159
35.34729002595557
35.34737590947462
35.02219098618932
35.02273311860328
33.72172091250596
33.72226999445574
34.04739551087254
34.04698627460348
33.72178688308585
34.04691986690182
33.72219446953677
32.42062808218845
32.42112372647366
32.74639200675774
32.74600860466859
32.42068713397482
32.74594698200472
32.42105527898065
35.34642672184532
35.18305879030802
35.18303666474903
34.53278018458287
34.53280801552487
34.37104711755646
34.37099147303836
32.09388588647772
31.76859117383653
31.7684077517252
32.09365317956382
32.09366906985247
32.09386842250782
31.7686074668286
35.1829034296135
35.18348729161135
34.5326407785046
34.37079469240638
35.18298235261449
34.5327238377506
34.37095375610598
32.09381722195577
31.76834984562242
31.76856988579828
32.09363347658317
32.09360741696672
32.09384559079673
31.768543677819
31.93060986818319
32.58072757267652
32.58104186958825
33.72135037314498
33.72189329049884
34.04697071305468
34.04665423535543
33.72145722464987
34.04654650172431
33.72177164471445
32.42029810095828
32.42078353373888
32.74599503116625
32.74570132231
32.42039291904948
32.74560214117243
32.42067435200897
35.18335467421239
34.53253982912044
34.53310261819065
33.23186292312529
34.04555857473466
33.06994935411118
32.09365617254882
31.76843868474818
31.76821757829301
32.09350229484874
32.09370264609321
32.09345330259773
31.76839620300174
31.2802517462766
31.28000811493088
31.28026480996511
31.11916180266357
31.44497466390813
31.11945948720743
31.44457869883065
31.4446083361693
31.11913524834066
31.11949063144684
31.11800399175517
31.44329915930352
31.11782619894441
31.44313725556747
31.4433140951372
31.11783928696605
31.11799099731338
31.28013848952899
31.11881995212939
31.44452994860066
31.11917085114177
31.44430263456047
31.44422648494531
31.1188880748339
31.11909169825616
31.11783613786024
31.44316107568033
31.4429621705052
31.11772377732688
31.44312280237254
31.11769375331492
31.11787021356624
31.27995041288825
31.28022541779782
31.28018758563191
31.11905766432603
31.44483878303923
31.11941863901918
31.44453978295372
31.44449208495345
31.11910038590763
31.11936864432112
31.11795428335828
31.44308163558522
31.44327970453465
31.11781450661906
31.44325599573004
31.11797464632928
31.1177980819227
41.68737858089274
41.03789040081043
41.03795084680075
41.03731111641738
41.03736471203052
41.68682818643988
41.68687518283637
41.68707878664175
41.03777103744741
41.03760296154611
41.03720652822619
41.03705396546228
41.68674054079641
41.68660309563471
41.6868930749915
41.03738459477449
41.03685810367558
41.68644058371393
39.90169415335874
39.57713629182008
39.57707043511821
39.90136648935333
39.57665245614567
39.90130902985221
39.57671387633874
39.90161477693871
39.57698385778368
39.57687742867052
39.90114671040963
39.57657155853738
39.90123493189314
39.57647227355447
39.9009613749507
39.57532153195728
40.38731361296548
39.57553464143602
39.73691333683958
39.73696174369429
40.38717673671036
40.38722743125921
40.38654131031585
40.38658686096071
39.73734138865843
39.73680739883025
39.73665374866362
40.38707073122245
40.38691566973529
40.38644921822674
40.38631353475566
39.73645647137888
40.38671709292039
40.38614172360226
39.2515984816024
38.92693562309791
38.92714135798871
38.92650486046198
39.25137797259566
39.25120018828424
38.92669655221393
37.95301310029605
37.62839057243313
37.62867602304608
37.62779624408144
37.95270726452087
37.95246485925804
37.62805835333056
38.92485992027045
39.24976127439405
38.92541283122782
39.2500410196638
39.2496083743197
38.92525781378086
38.92500890137435
37.62561214227873
37.62632683704791
37.9506032680189
37.95091204703725
37.62612593212867
37.95043070729493
37.62579563785558
38.43558832260454
39.0854324721878
39.08607647788566
38.43630503003726
39.08451886866542
38.43464780191891
38.43468330773965
39.08520060718431
39.08516201258301
38.43528724630616
38.43532898794426
37.78472986579376
37.13469539139503
37.1347371116407
36.97315427063675
37.78538451756571
37.78543084801248
36.97322557036936
39.08433791146077
38.435090794275
38.43448096190353
38.43458207309668
39.08508969273836
39.08498291917285
38.43520673412269
37.78451586016122
37.13521968204279
37.13451092782791
37.78462095296349
37.13462309346209
37.13535954538337
37.7852971760521
38.92795586850376
39.25246481870587
38.92787767721931