/*--------------------------------*- C++ -*----------------------------------*\
  =========                 |
  \\      /  F ield         | OpenFOAM: The Open Source CFD Toolbox
   \\    /   O peration     | Website:  https://openfoam.org
    \\  /    A nd           | Version:  7
     \\/     M anipulation  |
\*---------------------------------------------------------------------------*/
FoamFile
{
    version     2.0;
    format      ascii;
    class       surfaceScalarField;
    location    "0";
    object      phi;
}
// * * * * * * * * * * * * * * * * * * * * * * * * * * * * * * * * * * * * * //

dimensions      [0 3 -1 0 0 0 0];

internalField   nonuniform List<scalar> 
36637
(
1.795231572638869
3.13239416397261e-05
0.0001526447597797187
-1.588628539797788e-05
-0.0001615598168590126
1.795225288906082
3.202261505504375e-05
0.0001564656952979249
-1.624481213578496e-05
-0.0001659597658443702
1.79521951969511
0.0001641682803157719
-1.696854617140903e-05
-0.000174862865281948
3.34323417853577e-05
1.795214616791881
0.0001758675661376146
-1.807038113602866e-05
-0.0001884711978748765
3.557691582487467e-05
1.795211052361552
0.0001917188365325728
-1.956835254313643e-05
-0.0002070754063225877
3.848935235449282e-05
1.795209469902957
0.0002118929550939957
-2.148367646712698e-05
-0.0002310347341110313
4.220791383602304e-05
1.795210742468271
0.0002365366909486966
-2.383742530237288e-05
-0.0002607412831782344
4.676945203654394e-05
1.795216036188059
0.0002657117275859378
-2.664514278532542e-05
-0.0002965590499284687
5.219874500430109e-05
1.795226872399724
0.000299304328412316
-2.990843712353662e-05
-0.0003387241450026224
5.849204191638289e-05
1.795245173395593
0.0003368966787107297
-3.360232126742682e-05
-0.0003871879615857665
6.559260797176388e-05
0.0003775922370526189
1.795273263371904
-3.765684274981109e-05
-0.0004413812864738447
7.335591563917099e-05
1.795232236815281
0.0001500372446955765
-0.0001587296725601676
0.0001537302027685428
1.795226629027553
-0.0001629783452508188
1.795235671371998
2.838156997618113e-05
0.0001410750034536847
-1.438794804522644e-05
1.795233551500459
2.893583110598283e-05
0.0001443218887171215
-1.467215367719504e-05
1.795232069566779
3.004973087220802e-05
0.0001508440354102802
-1.524355300354359e-05
1.795231620514343
3.173296407007263e-05
0.0001606912460943022
-1.610759214543123e-05
1.795232693220882
0.0001739199064843617
-1.727102083367839e-05
3.399724376716405e-05
1.795235905338984
0.0001905683593879472
-1.873992378311288e-05
3.685240101434232e-05
1.795242038649178
0.0002106196973672609
-2.051664343569727e-05
4.030032637619953e-05
1.795252071108081
0.0002339484524658004
-2.25951969233911e-05
4.432601274974596e-05
1.795267197867325
0.0002602474488284656
-2.495471247320233e-05
4.888483241940375e-05
1.795288827687152
0.0002889320363524033
-2.755039862795383e-05
5.388522076985414e-05
0.0003190221444315967
1.795318533134406
-3.030170105339156e-05
5.916634584285653e-05
1.79523619826648
0.0001387231210655785
1.795234610401437
0.0001418640349263687
1.795233669690333
0.0001481701482106063
-0.0001611706274165326
0.00015768316232011
-0.0001724610752952831
1.795233772995232
1.795239154319091
2.572765931882351e-05
0.0001273254186434869
-1.303715586707325e-05
1.795240547833856
2.616234017632519e-05
0.0001300259166656844
-1.32598834490052e-05
1.795242632709858
2.703246360624699e-05
0.0001354325858480353
-1.370589054309423e-05
1.795245810952323
2.833858273317305e-05
0.0001435502098578934
-1.437578938509787e-05
1.795250552084269
3.007899709989476e-05
0.0001543689904861978
-1.526921347042306e-05
1.795257414491076
3.224642681673952e-05
0.0001678426466424725
-1.638312138984705e-05
1.795267063499992
0.0001838568620850708
-1.770928895942596e-05
3.482311485421796e-05
1.795280282148809
0.0002021865839836323
-1.923080486523359e-05
3.777402407934019e-05
1.795297967941437
0.0002224412220144245
-2.091740188501334e-05
4.103783560021841e-05
1.795321105468872
0.0002439983923663106
-2.271954847336205e-05
4.451566457025766e-05
0.0002659301371487653
1.79535070102078
-2.456146326133754e-05
4.805791808905872e-05
1.795239567537593
0.000125251049085827
1.79524137499493
0.000127865590608104
1.795243874339363
0.0001330978119966631
1.795247465433732
0.0001409475794799407
1.795252612497151
0.0001513981474257337
-0.0001704475758474543
0.0001643949083369365
-0.0001864865680703798
1.795259863955152
1.795242051154318
2.338689962755291e-05
0.0001118288860056359
-1.184628339788699e-05
1.795246347589952
2.37245854650458e-05
0.0001140240882380368
-1.201919318265029e-05
1.795251340518305
2.439785853527159e-05
0.0001184058499124432
-1.236405135281776e-05
1.795257416302448
2.540172303964503e-05
0.0001249512303427735
-1.287852814329151e-05
1.795265005330251
2.672663893135133e-05
0.0001336114056726956
-1.355808245900079e-05
1.79527459300536
2.835593062400221e-05
0.0001442936740209973
-1.439463361809282e-05
1.795286725867498
3.026213963091834e-05
0.0001568365440103745
-1.537468427119161e-05
1.795302009381722
3.240223075303457e-05
0.0001709776793674678
-1.647684088706367e-05
1.795321092406084
0.000186315262913084
-1.766872843813952e-05
3.471166269264302e-05
1.795344631741052
0.0002022649009392384
-1.890340390738716e-05
3.709755991674899e-05
0.0002180167931819356
1.795373229034233
-2.01155833735431e-05
3.94316337043085e-05
1.795242372166953
0.0001100451155338608
1.79524698762016
0.0001121720792127688
1.795252294817004
0.0001164159125108625
1.795258675800611
0.0001227509403729953
1.795266554175655
0.0001311246881146218
1.795276405095308
0.000141440515347054
1.795288760291626
0.0001535336858511556
-0.0001798149486189431
0.0001671407594088236
-0.0001974261275732118
1.795304204785452
1.795244405956723
2.137405768161164e-05
9.49667611977333e-05
-1.082265181651169e-05
1.7952510479236
2.163474181101236e-05
9.670342757301562e-05
-1.095604824286117e-05
1.7952583617746
2.215237375493526e-05
0.0001001606340766331
-1.122100933059787e-05
1.795266706107853
2.291887223646995e-05
0.0001053015838534493
-1.161355941340605e-05
1.795276464243059
2.392057757683492e-05
0.0001120596381742446
-1.212694572022895e-05
1.795288047793193
2.513636985606792e-05
0.0001203244235154869
-1.275066990951995e-05
1.795301895121085
2.653512904247097e-05
0.0001299232629151361
-1.34691763043672e-05
1.795318462070178
2.80725742761357e-05
0.0001405983680607104
-1.426021241428718e-05
1.795338201647887
2.968762529589306e-05
0.0001519809885810022
-1.509292903355699e-05
1.795361528860134
3.129860684225696e-05
0.000163564960327082
-1.592587885568212e-05
0.0001746838964726734
1.795388767076226
-1.670521511759934e-05
3.27998952261085e-05
1.795244653769586
9.348018439421716e-05
1.795251539997452
9.516402219896066e-05
1.795259090427237
9.851483014193435e-05
1.795267658353978
0.0001034944810669458
1.795277620005621
0.0001100347412304727
1.795289377488643
0.0001180239070324346
1.795303356654969
0.0001272890171675015
1.795319997378044
0.0001375741272136279
1.795339733087218
0.000148515871645572
-0.0001818629860609803
0.0001596187389079513
-0.000197125897678063
1.795362956022416
1.795246268885833
1.969657495476949e-05
7.706640434583673e-05
-9.969865958482387e-06
1.795254756483104
1.989764631305162e-05
7.839088084967343e-05
-1.007269706161915e-05
1.795263876492442
2.029521598038421e-05
8.1021486588321e-05
-1.027607818067969e-05
1.795273955500306
2.087970163258149e-05
8.491809661848039e-05
-1.057522262678307e-05
1.795285329912048
2.16356437583638e-05
9.001197351011447e-05
-1.096239114540241e-05
1.795298344507415
2.254042149192327e-05
9.619563531533242e-05
-1.142622891677022e-05
1.795313346349971
2.35625939565664e-05
0.0001033097323057489
-1.195090630338427e-05
1.795330672253662
2.46599609807991e-05
0.0001111276120626855
-1.251510902864014e-05
1.795350627821662
2.577751869527469e-05
0.0001193388674707307
-1.309096600859246e-05
1.795373456188337
2.684561242964045e-05
0.0001275340471327642
-1.364306633827361e-05
2.777875467890998e-05
0.0001351938439713339
1.795399295291453
-1.412780574379809e-05
1.795246460029304
7.587922459457846e-05
1.795255134422789
7.71641688954532e-05
1.79526443211914
7.971539766060687e-05
1.795274674117792
8.349228512827267e-05
1.795286190016384
8.842566201195586e-05
1.795299316210105
9.440809077979213e-05
1.795314389534511
0.0001012813187441878
1.795331734631965
0.0001088216008797902
1.795351643178265
0.000116724180528927
1.795374343256704
0.0001245890583662753
0.0001319112497197662
1.795399957888115
-0.0001702341867990767
1.795247689657145
1.835693781388755e-05
5.840407850143948e-05
-9.289031156408318e-06
1.795257578344618
1.851340025722849e-05
5.935779910542318e-05
-9.369005989712059e-06
1.795268056401923
1.882139936023308e-05
6.124851017384292e-05
-9.526480492141853e-06
1.795279419722789
1.927078769894389e-05
6.404033934151291e-05
-9.756351521930602e-06
1.795291963151328
1.984561843572888e-05
6.767351580823066e-05
-1.005058964739561e-05
1.795305975828285
2.052332082646568e-05
7.20574486925342e-05
-1.039781145952281e-05
1.795321732621474
2.127369190378385e-05
7.706200237988767e-05
-1.078275550980789e-05
1.79533948050085
2.205781228339342e-05
8.250763427003801e-05
-1.118571412855637e-05
1.795359418824319
2.282705414704038e-05
8.815549727358984e-05
-1.158200780143849e-05
1.795381672883657
2.352242877131351e-05
9.369918552922138e-05
-1.194162681862635e-05
2.407461029273038e-05
9.876046401114997e-05
1.795406260867388
-1.222921449856369e-05
1.795247838394275
5.751590499951784e-05
1.795257871136286
5.844160176545725e-05
1.795268483601703
6.027618186941218e-05
1.795279966171279
6.298369732869276e-05
1.79529260739217
6.650449613713895e-05
1.795306689149783
7.074858864978649e-05
1.795322478025923
7.558731745122773e-05
1.795340211761385
8.084399334061049e-05
1.795360079864828
8.628457967601353e-05
1.795382197801231
9.16100560742099e-05
9.64527119788724e-05
1.795406574997784
1.795248712717168
1.735470520398955e-05
3.921168571707767e-05
-8.779791540797432e-06
1.795259606518101
1.747954502234161e-05
3.982802615535648e-05
-8.843573236405439e-06
1.795271051208459
1.772420483741862e-05
4.104821955317848e-05
-8.968604745360608e-06
1.795283317046085
1.807845192510502e-05
4.28457721994846e-05
-9.149722600909322e-06
1.795296665814021
1.852647348455024e-05
4.517721492373431e-05
-9.378940798856987e-06
1.795311344233426
1.904637721788795e-05
4.797784255837023e-05
-9.645190739107941e-06
1.795327574173086
1.960962821454821e-05
5.115646042241906e-05
-9.934026153676565e-06
1.795345538986524
2.018052689697302e-05
5.458963963443167e-05
-1.022734591929187e-05
1.795365365561324
2.071587366418445e-05
5.811625791807273e-05
-1.050320943895024e-05
1.795387102137802
2.116501370669503e-05
6.153343797166144e-05
-1.073584289704999e-05
2.147049718209778e-05
6.459534596309098e-05
1.79541069271707
-1.089595870760877e-05
1.795248831393039
3.862097661353227e-05
1.795259839097838
3.921941780132859e-05
1.795271387964618
4.040382406335818e-05
1.79528374294658
4.214778378669451e-05
1.795297160047511
4.440809983472883e-05
1.795311879673903
4.71207103300656e-05
1.795328116883624
5.01956780283308e-05
1.795346047900573
5.351174227731985e-05
1.795365792525075
5.691119279751171e-05
1.795387392538025
6.019614141640966e-05
6.312759695025375e-05
1.795410786943059
1.795249373868089
1.6688137378651e-05
1.968608013520739e-05
-8.441161913458894e-06
1.795260915424521
1.679277929571039e-05
1.998829540193305e-05
-8.494605144604367e-06
1.795272979450516
1.699705621639722e-05
2.058609866130891e-05
-8.598961505215495e-06
1.795285817994213
1.729082800790436e-05
2.146550541672526e-05
-8.749105043533939e-06
1.795299670058682
1.765858877495213e-05
2.260375416778285e-05
-8.93719264423175e-06
1.795314753949768
1.807917223572983e-05
2.396728793030443e-05
-9.15250883670193e-06
1.795331256958434
1.852546234102674e-05
2.550930124128104e-05
-9.381312163841902e-06
1.795349322004363
1.896420616691028e-05
2.716711826877827e-05
-9.606731025145605e-06
1.795369031184315
1.935605431937492e-05
2.88597980473613e-05
-9.808774636722383e-06
1.795390386658966
1.965598177881288e-05
3.048651698806783e-05
-9.964535782872141e-06
1.981426013027558e-05
3.192642536716566e-05
1.795413289994002
-1.004867500707408e-05
1.795249473343318
1.939121788710172e-05
1.795261109615268
1.968471992523167e-05
1.795273258717316
2.026512174863067e-05
1.795286167596814
2.111851730555542e-05
1.795300069875836
2.222233533881749e-05
1.795315178204291
2.35434078703632e-05
1.795331674039275
2.503563191442696e-05
1.795349694505013
2.663748521314348e-05
1.795369316302867
2.82697817368671e-05
1.79539053712233
2.983419873459071e-05
3.121324388379523e-05
1.795413255665267
1.795249698055613
1.635540895813894e-05
-8.272146475468632e-06
1.795261556690534
1.64502187276261e-05
-8.320558378569017e-06
1.79527392279374
1.663485951001759e-05
-8.414864235933656e-06
1.795287038998296
1.689927974268812e-05
-8.549979018825834e-06
1.795301132726934
1.722818821353882e-05
-8.718162923946085e-06
1.795316408073759
1.760085758855951e-05
-8.908916805120052e-06
1.795333035305518
1.799096447493148e-05
-9.108895313306064e-06
1.795351137748874
1.836655774371506e-05
-9.301883157164148e-06
1.795370776172355
1.869026822497135e-05
-9.468893960646651e-06
1.795391931254592
1.891989295127188e-05
-9.588458591853116e-06
1.900949200571175e-05
1.795414485362613
-9.637175157027679e-06
1.795249788184165
1.795261732214655
1.795274174158209
1.795287351666914
1.795301486995768
1.795316778919144
1.795333392353839
1.795351445476157
1.795370994459375
1.795392016429687
1.795414391850613
0.0004197937754639725
-4.193137187513716e-05
1.79531377577144
-0.0004998775607680713
8.150275727351174e-05
0.0003490098054350725
-3.30777059852055e-05
1.795357923302092
6.447150751129822e-05
0.0002869312817278324
-2.633367956300476e-05
1.795387662504545
5.145071883499738e-05
0.0002325017217238204
-2.121832877515993e-05
1.795407332761641
4.15441607682547e-05
0.0001844985465715339
1.795420073856512
-1.73635894537906e-05
3.405998385313803e-05
2.847576627812021e-05
0.0001416873178543742
1.795428124154832
-1.449340143929413e-05
0.0001380798751569045
-0.0001795498408414717
1.795428453353416
2.440505647362389e-05
0.0001028919386666175
1.795433055798625
-1.240460894077086e-05
0.0001003791865439569
1.795433078260544
-2.156961720742998e-05
6.542899790673568e-05
1.795435785946615
6.701658863779082e-05
1.79543594997218
-1.095152309253189e-05
1.977814837520845e-05
3.304077614306901e-05
1.795437521930197
-1.003427241324789e-05
3.227242261028938e-05
1.79543725222409
1.891112303033399e-05
1.79543820560103
-9.590585730446899e-06
1.795437888255478
1.795213192782839
-1.795218472263258
0.0001776069799461766
-0.0001904044994132546
1.795209231606734
0.0001937547204038565
-0.0002093688100188729
1.795207232370458
0.0002143244550109985
-0.0002338162955838998
1.795208073381858
0.0002394795512570086
-0.0002641661902842429
1.79521293401887
0.0002693007693661175
-0.0003008160534055202
0.0003036942944660836
1.795223360901119
-0.0003440411729654256
1.79523421634488
-1.795231296845017
0.000192656945896293
1.795240062724261
0.0002131075608789075
1.795249828093631
0.0002369299599154402
1.79526473034317
0.0002638252933094166
1.795286212230273
0.0002932131116324399
-0.00034225986231462
0.0003241091144894441
-0.0003841103269004534
1.795315894194708
1.795278678827522
-1.795265617108939
0.0002046271331100172
1.795296254775849
0.0002253201801947028
1.795319354498638
0.0002473802406273337
0.0002698700537021899
1.795349016307661
1.795372180736898
-1.795343479412942
0.0002210390444925013
1.795241319066101
-0.0003938349988743539
1.795269199897653
-0.0004496669701414548
0.0004276398499527545
1.7953097375838
-0.0005101332924843845
0.0003549863279648608
1.795355448871696
0.0002914644800498586
1.795386186262995
1.795406493361064
0.0002359177724618445
1.795364169476294
4.497304685396563e-05
0.0004579773163868595
-0.0005574116537281812
4.861744210170634e-05
0.0004941122486883387
1.795435540870706
-0.0006141354621648882
1.795367813871536
0.0004489238333085697
-0.0005452129301887391
8.722404312128232e-05
0.0004836522029378898
-0.0005995772422409118
1.795438215895103
9.41404572204431e-05
1.795404944849722
3.475691719966345e-05
0.0003737002145193882
3.681411926702626e-05
0.0003961620457011891
1.795466053499219
1.795407002051789
0.0003669771741784583
6.762482579505762e-05
0.000388587958911521
1.795467359276678
7.152113746277919e-05
1.795430291224996
2.717050529932859e-05
0.0003024046354725338
2.82673697019145e-05
0.0003159036631237278
1.795482260033417
1.795431388089398
0.0002974131663771043
5.300892749741536e-05
0.0003103964110192916
1.795482771343281
5.507566305227897e-05
1.795445523795188
2.153803269373844e-05
0.0002418192531522718
2.205287732064019e-05
0.000249555491033562
1.795489800830346
1.795446038639824
0.0002381250309682059
4.212028931995589e-05
0.0002455506046100885
1.795489858945579
4.307837721151942e-05
1.795454253519246
1.736939919293373e-05
-1.795419639525384
0.0001898214022730411
1.753368415003899e-05
0.0001939596314504108
1.795492300384993
1.795454417804194
0.0001871116803183956
3.403880150433326e-05
0.0001910648816998866
1.795492108352782
3.432885789016202e-05
1.795458878674971
0.0001425715637805292
-1.431169527728336e-05
2.80972911905123e-05
0.0001444565221079931
-1.426719118717636e-05
1.795491765094106
2.798913111173595e-05
1.795461005699281
2.381767995396898e-05
0.0001029173243972391
-1.211334168541938e-05
2.34761505116333e-05
0.0001036649470908184
-1.194658837216619e-05
1.795490267711664
1.795460664169845
0.0001003000080381324
-0.0001387789936635927
0.0001009299280454456
1.795489487814137
-0.000140457141244397
1.795461849331566
2.086424832296341e-05
6.67520950540502e-05
-1.059837865139333e-05
2.038990082798797e-05
6.695968131271619e-05
1.795488526789683
-1.036209357362436e-05
1.795461374984072
6.510933981473951e-05
6.525414939062557e-05
1.795487690088578
1.79546208357602
1.901053077863194e-05
3.28283899284621e-05
-9.648471989787621e-06
1.846534481770547e-05
3.284994264674092e-05
1.795487103082856
-9.37511348369242e-06
1.795461538390057
3.203648616061445e-05
3.203096697763544e-05
1.795486243325747
1.795462107896554
1.811693087338535e-05
-9.190836908825827e-06
1.754119644571912e-05
1.795486318134273
-8.90149192865921e-06
1.795461532162129
1.795485450843245
1.795386929599559
-0.0007404147252384227
-6.504522586374623e-05
-1.795306468104883
0.0001254212138460709
1.795231231814384
0.0001539725788418224
-0.0001630017407696428
1.795224600906394
0.0001578593773619386
-0.0001674796264719263
0.0001656969606455932
-0.0001765433073163975
1.795233008313986
-1.795235401199037
0.0001455734355415388
1.795231248189566
0.000152206704204812
1.795230514529948
0.0001622259610391381
0.0001756938981950101
1.795249493175533
-1.795244961641046
0.000155885386239359
1.795256153803038
0.0001696048345822376
0.0001859257771073617
1.795285678129872
-1.795273661344694
0.0001585251956610449
1.795300876343617
0.000172942044446722
1.795319918692726
0.0001885979234801568
0.0002049035687576861
1.79533740982496
-1.79531767046894
0.0001537551182313026
1.795360788003599
0.0001655879773805137
0.0001769679837957647
1.795388141209131
1.795398947747039
-1.795372995382948
0.0001368763660561104
0.0001870420928540284
1.795427945812392
0.0001435383953398612
1.795458923179062
0.0001445197337608384
0.0001465130287223736
1.795492089452324
1.79546117245259
-1.795433037189248
0.0001042598770651753
1.795490658195128
0.000105069118485133
1.795524823164008
5.129246648994925e-05
0.0005211523876859728
-0.0006617652777597212
1.795630214023838
5.211164623436642e-05
0.0005333009391442118
-0.0006908438484884982
5.020842305996296e-05
0.0005246540460909871
-0.0006886923712356307
1.795744002986758
1.79552564234374
0.0005094789221402606
-0.0006450269012271606
9.94139962458015e-05
1.795628310800651
0.0005210457289450687
-0.0006735697995764263
0.0001019672592986789
0.0005129579520481755
-0.0006780459514530435
1.795742891390987
0.0001007158315437535
1.795538531830125
3.811989672125335e-05
0.0004105241953716217
1.795620456698423
3.828262427725523e-05
0.0004130619183536825
3.701031883855657e-05
0.0004001948864077264
1.79570787371663
1.795538694557685
0.0004022460554010019
7.401748159452382e-05
1.795619184392983
0.0004043812169505685
7.445730020866608e-05
0.0003915130818656448
1.795705409652747
7.222992839621517e-05
1.795541395447032
2.877867957990752e-05
0.0003225862796869084
1.795605937284655
2.848714883651218e-05
0.0003200081955085921
2.721359863500084e-05
0.0003059185074318064
1.795672975376313
1.795541103916278
0.0003166774087595599
5.601475246479772e-05
1.795604663734458
0.0003138874968679122
5.542104999769291e-05
0.0002998353077477788
1.795670629834518
5.292527198841902e-05
1.795538486285764
2.211099256831516e-05
0.0002517705838702674
1.795590038201524
2.158043125888377e-05
0.0002468561379178177
2.034919561101278e-05
0.0002334067554401207
1.79564218128823
1.795537955724448
0.000247544018028065
4.314760385022524e-05
1.795588806965874
0.0002425411502997576
4.207553564828832e-05
0.0002291765038755296
1.79564017356445
3.964140011289126e-05
1.795532940727568
1.734165194160892e-05
0.0001937727039663451
1.795574861651921
1.671131374730582e-05
0.0001882078308597102
1.557569593057036e-05
0.0001763969762045087
1.795616279985857
1.795532310389376
0.0001907606875732881
3.392294522086437e-05
1.795573726034085
0.0001851734976248594
3.266332112468396e-05
0.0001734601545159792
1.795614597551427
3.042052740321263e-05
1.795526661214524
1.394283297480193e-05
0.0001452446557714352
1.795561534049554
1.328731201914698e-05
0.0001400342084117341
1.226172817448408e-05
0.000130352700567137
1.79559530345793
1.795526005693574
0.0001431295492771341
2.733337127897307e-05
1.795560508465705
0.0001379269360434847
2.603110096850704e-05
0.0001283345095981261
1.795593888220367
2.400761799492599e-05
1.795520781642487
1.155610489837676e-05
0.0001035533692310224
1.795550609244309
1.09094241434011e-05
9.928551462458901e-05
9.984361505904403e-06
9.195128664867389e-05
1.795579014955337
1.79552013496172
0.000102122150744898
2.269625298613272e-05
1.795549684181665
9.787184315257491e-05
2.14152966253185e-05
9.060828100615491e-05
1.795577804011195
1.959076034552345e-05
1.795515965710827
9.941089605322775e-06
-1.79548894779365
6.658379262147823e-05
1.795542333156163
9.31420923677706e-06
6.359340321675691e-05
8.468887352624602e-06
5.86883306346036e-05
1.795567117077404
1.795515338830455
6.5697999436722e-05
1.955319969814716e-05
1.795541487834271
6.272382413858678e-05
1.831322410927368e-05
5.786692553537876e-05
1.664591548443683e-05
1.795566052161284
7.541997565013654e-06
-1.795536798175093
2.85900712291749e-05
1.795559345017743
1.795511982712128
3.215432514242871e-05
1.760558770707871e-05
-8.941543019378123e-06
1.79553600721367
3.062969409266717e-05
1.640258716283947e-05
-8.332958981970837e-06
2.820018740943197e-05
1.48422689843053e-05
1.795558373680095
1.795510262288254
1.667390541125767e-05
-8.463734601446571e-06
1.795533265710197
1.549188765304619e-05
-7.865615880186875e-06
1.398543523956627e-05
-7.102044932594227e-06
1.795554582506931
1.795492010328744
7.018038214322589e-05
-0.0008422105259712394
-1.795381794443294
1.795632641793375
7.160402522778706e-05
-0.0009031306717162125
6.222205405492834e-05
1.795771494622201
-0.0006497036134678058
4.57636313543619e-05
-0.0001144620359965487
-0.0001714147494284723
1.795493433971835
-0.0008171124949072349
0.0001357616026520623
1.795623259822214
-0.0008747285060714629
0.0001429368803334963
1.795781073277609
-0.0009179600700668826
0.0001443227161827043
9.933679261564536e-05
-0.0001390201582083251
1.795518854005365
1.795514098854866
6.39720354107994e-05
1.795539820525661
6.103062721724936e-05
-9.512280197574801e-05
5.62685430005132e-05
-8.799857421357982e-05
1.795563955783308
1.795510779711584
3.132867293942355e-05
1.795534446895495
2.982263674056185e-05
2.744086562955773e-05
1.795556460299125
1.795509080270499
1.795531759257784
1.795552758338232
0.000142272068744441
1.795238942588682
0.0001283807638677402
1.795240123848373
0.0001311254101612219
1.795241995887267
0.0001366217170325257
0.0001448770753142981
1.795241886781966
0.0001127360231946398
1.795246019759162
0.0001149662419807556
1.795250851443811
0.00011941880802608
1.795256770301137
0.0001260722393396918
1.795264210083801
0.0001348796719231161
0.0001457505464443898
1.795250796044968
-1.795244279146729
9.748624898067536e-05
1.795257988606707
0.000100998027339827
1.795266218069997
0.0001062217527446136
1.795275871315255
0.0001130916606179257
1.795287364763041
0.0001214981364892508
1.795301143142396
0.0001312687462135644
0.000142144869956891
1.795273587448222
-1.795263592118275
8.564377610827595e-05
1.795284888976269
9.082000743896684e-05
1.795297845735973
9.710701374388009e-05
1.795312810004773
0.000104344941703971
1.795330124829633
0.0001123057151914963
1.795350102981288
0.0001206760986960376
0.0001290418543362648
1.795305609890832
-1.795291633073575
7.272441743120617e-05
1.795321349558961
7.781414209336485e-05
1.795339103774175
8.335693538459276e-05
1.795359076961489
8.91115230032824e-05
1.795381399495632
9.476774520997924e-05
9.994198863019102e-05
1.795406094133043
1.795345276743781
-1.795327295335966
5.513962543554786e-05
1.795365144414134
5.873166256975537e-05
1.795386949927718
6.22169664836747e-05
6.534620454592816e-05
1.795410639896183
1.795390306674129
-1.795368883113866
3.081979473744723e-05
1.795413303685464
3.229109449611402e-05
0.0001041796560817067
6.782945161385039e-05
1.795436028324026
3.343396905126566e-05
1.795437655165664
1.795438363560095
-1.79541452965168
1.795462085616641
6.759389759660242e-05
6.783433813950523e-05
1.795462356934536
3.323394384145241e-05
3.326966370802617e-05
1.795487536653326
1.795462397241529
1.795486755891595
1.795512591296166
3.257775657061757e-05
3.104385121588393e-05
1.795510860406992
1.795534029281143
1.795555508232802
1.795866558998576
4.909682729299528e-05
0.0004926364673291986
-0.0006643294212384243
1.795985336313699
4.377219693723404e-05
0.0004306970336549934
-0.0005932820054399072
3.49765650818332e-05
0.0003368230086320028
-0.0004741324094231667
1.795861234368211
0.0004797418227997737
-0.0006442093542285104
9.522138079631722e-05
1.795976540681842
0.0004184996898146664
-0.0005734145719102913
8.338076477210479e-05
0.0003265629477493309
-0.0004571037164413875
6.398106612631372e-05
1.795796665314604
3.454625495952602e-05
0.0003692681514817268
1.795879407004243
3.000847251461258e-05
0.0003179200860138994
2.339890913499523e-05
0.0002459098558839193
1.795792127532159
0.0003606913806704543
6.687881693190908e-05
1.795872797440865
0.000310160746494148
5.767750627683199e-05
0.0002396936894371038
4.432507203882897e-05
1.795738723140339
2.486805685341739e-05
0.0002786289403360342
1.795798149234059
2.125268008390115e-05
0.0002372206833030077
1.638446376972524e-05
0.0001821556416809037
1.795735107763562
0.0002728451132867349
4.823639446798482e-05
1.795793281017744
0.0002321289704394261
4.111120098448376e-05
0.0001781706502501875
3.15638141834025e-05
1.795691997242812
1.834147184231538e-05
0.0002104531506631925
1.795736012750282
1.550709041708842e-05
0.0001776817532668661
1.188772049625959e-05
0.0001357010318306813
1.795689162861393
0.0002065111688693833
3.568611855674984e-05
1.795732393380355
0.0001742688859447828
3.01366550973175e-05
0.0001330601370312934
2.307722624673123e-05
1.7956550173488
1.389326150057542e-05
0.0001578076818993707
1.795688640872569
1.165594332519461e-05
0.0001323889370539178
8.907682490838795e-06
0.0001006995980071927
1.795652780030622
0.0001551076487515957
2.711430177797786e-05
1.795685892611737
0.0001300775692196803
2.273467828095092e-05
9.892401986334223e-05
1.736920084211773e-05
1.795626334333576
1.08464906176664e-05
0.0001159179109369943
1.795652881994656
9.047750073809529e-06
9.678224171256599e-05
6.904084942310295e-06
7.339690888239408e-05
1.795624535593035
0.0001140807637794352
2.122600256222665e-05
1.795650738329527
9.522244756272464e-05
1.770013482811056e-05
7.220528279653485e-05
1.350607146060936e-05
1.795604741265365
8.773417373444908e-06
8.140744663018752e-05
1.795626493521816
7.287647460819327e-06
6.773246806692866e-05
5.559430467919632e-06
5.125881740698545e-05
1.795603255495443
8.01938503014923e-05
1.720884638639313e-05
1.795624765304815
6.670831588559881e-05
1.429196959240827e-05
5.047971547611496e-05
1.090375887186894e-05
1.795589310148671
7.403971226402644e-06
5.180077015882616e-05
1.795607904328087
6.131973840695355e-06
4.299738416335686e-05
4.680276410534686e-06
3.249499293644931e-05
1.795588038151287
5.106229384921335e-05
1.454953749657707e-05
1.795606452630651
4.237680798377854e-05
1.20490021586761e-05
3.202432987592374e-05
9.198092996598475e-06
1.795579376233498
6.570659921384241e-06
2.518993158526684e-05
1.795596053221772
5.431703401176259e-06
2.088033534983682e-05
4.149170882977681e-06
1.576794809849026e-05
1.795578237276963
2.484046868398338e-05
1.29288880129695e-05
1.795594770689256
2.058739818851183e-05
1.068770079125645e-05
1.554617877401523e-05
8.165947334601432e-06
1.795574513199739
6.176319062750507e-06
1.795590284302712
5.101147293568086e-06
3.89892199653963e-06
1.795573438027958
1.216126653001986e-05
1.79558908207742
1.004449565300547e-05
7.679133020133108e-06
1.795946730309964
7.180070946920886e-05
-0.0002319569083704121
-0.0002337063292181807
-0.0002230979788037935
-0.0002226573347080263
1.796119787078183
6.619100250892588e-05
-0.0002133097610607926
-0.0002120674679521317
-0.0002036803678477916
-0.0002035193828917037
5.419207957524892e-05
-0.0001709145224289554
0.4491535319435864
-0.0001646597955537454
-0.0001660739127240241
-0.0001660694387075612
0.4489673698955445
0.4489937055429242
0.4491445364290829
1.795941120602997
-0.0003012255192971491
-0.0002022195050336295
-0.0001952279553278369
-0.0001736666721665059
0.0001398836807950955
1.796107788155261
-0.0002012365104589464
-0.0001952612952640098
-0.0002095450928899789
-0.0001924222724924429
0.0001245740485468687
-0.0001687508229005485
-0.000178131333745335
-0.0001419251153169654
-0.0001504339311998726
0.4491590160839736
0.4493243453575577
0.4485888352938304
0.4491730473572673
9.887362792743714e-05
1.795575996089752
2.416020636313475e-05
-4.96260823663377e-05
2.001739301340549e-05