/*--------------------------------*- C++ -*----------------------------------*\
  =========                 |
  \\      /  F ield         | OpenFOAM: The Open Source CFD Toolbox
   \\    /   O peration     | Website:  https://openfoam.org
    \\  /    A nd           | Version:  7
     \\/     M anipulation  |
\*---------------------------------------------------------------------------*/
FoamFile
{
    version     2.0;
    format      ascii;
    class       volVectorField;
    location    "0";
    object      U;
}
// * * * * * * * * * * * * * * * * * * * * * * * * * * * * * * * * * * * * * //

dimensions      [0 1 -1 0 0 0 0];

internalField   nonuniform List<vector> 
12686
(
(0.9999981833609611 1.282001854919832e-05 9.063593557086357e-05)
(0.9999946166106664 1.310710307320504e-05 9.300734455827861e-05)
(0.9999912596899907 1.368644802290931e-05 9.779744584749472e-05)
(0.9999882873504918 1.456801598523954e-05 0.0001050977203862207)
(0.9999859290745651 1.576566986394276e-05 0.0001150368008236033)
(0.9999844955909125 1.729556116007374e-05 0.0001277676026552968)
(0.999984409281117 1.917341927737836e-05 0.0001434455694636885)
(0.9999862380873148 2.141019366738552e-05 0.0001621934935117731)
(0.9999907305085377 2.400530249753457e-05 0.0001840466750215417)
(0.999998845645912 2.693655406064221e-05 0.0002088705693162963)
(1.000011766208455 3.014570594183575e-05 0.0002362423625557113)
(0.9999983683437784 2.096344894569128e-05 8.906737997761868e-05)
(0.9999951748368653 2.142574565354324e-05 9.135823500758311e-05)
(0.9999993249179312 1.161413635909502e-05 8.472685477886655e-05)
(0.9999980594207124 1.184182345421913e-05 8.676564923510949e-05)
(0.9999970562654108 1.229946932849564e-05 9.08689372306673e-05)
(0.9999965184576051 1.29911855240377e-05 9.708427275920718e-05)
(0.9999966921543728 1.392198564541868e-05 0.0001054727143298089)
(0.9999978855405475 1.509619164791795e-05 0.0001160946099467147)
(1.000000488378668 1.651495300926513e-05 0.0001289874197065262)
(1.000004990781199 1.817256986851109e-05 0.0001441327442476924)
(1.000011997990496 2.005125572477265e-05 0.000161409166511764)
(1.000022235234003 2.211398285371512e-05 0.0001805275139605191)
(1.00003653285481 2.429520238959639e-05 0.0002009464561953716)
(0.9999994716657304 1.900162381674871e-05 8.329625935417936e-05)
(0.9999985010878812 1.936861510737213e-05 8.526756856583983e-05)
(0.9999977968425338 2.010586640733412e-05 8.923291604828816e-05)
(0.9999975636126884 2.121919701328333e-05 9.523391469474982e-05)
(1.000000294969507 1.052665239928545e-05 7.742319868387501e-05)
(1.000000978053206 1.070517279514254e-05 7.913879001427073e-05)
(1.000001946835784 1.106257030779523e-05 8.257979459374507e-05)
(1.000003412691063 1.159916139439388e-05 8.776195844974758e-05)
(1.000005618352369 1.231438476623193e-05 9.46987202759717e-05)
(1.000008850107194 1.320543766004686e-05 0.000103387790201083)
(1.000013448777355 1.426526482870502e-05 0.0001137913152266344)
(1.000019817753649 1.547975958450323e-05 0.0001258081835931812)
(1.000028425091454 1.682405155823987e-05 0.0001392371165892951)
(1.000039794981657 1.825783802460952e-05 0.0001537299313611677)
(1.000054481913563 1.971991821119689e-05 0.0001687362350732568)
(1.000000410056889 1.723133906511934e-05 7.614639523598238e-05)
(1.000001323517015 1.751934038035495e-05 7.78066227503283e-05)
(1.000002523024141 1.809564145011713e-05 8.113498852332612e-05)
(1.000004219300199 1.896019008082491e-05 8.61434832115532e-05)
(1.000006653004622 2.011121793292543e-05 9.284011248264978e-05)
(1.00001010617372 2.154302758168895e-05 0.0001012158105001121)
(1.000001101780381 9.567631597425478e-06 6.898681864945172e-05)
(1.000003400180766 9.706284719152973e-06 7.039903987607336e-05)
(1.000005987404155 9.982760012547363e-06 7.322262569813963e-05)
(1.000009070202065 1.039506820953417e-05 7.745233852275427e-05)
(1.000012876051544 1.093938554942494e-05 8.307126812075882e-05)
(1.000017660013892 1.160898942797683e-05 9.003932326697674e-05)
(1.000023709500394 1.239275821496361e-05 9.827694406732642e-05)
(1.000031345361183 1.327319617833823e-05 0.0001076435375051252)
(1.000040916943549 1.422398552237488e-05 0.0001179105244969873)
(1.000052787892435 1.520715827966341e-05 0.0001287297961458316)
(1.000067308703994 1.617014946493969e-05 0.0001396000760595976)
(1.00000119118708 1.566929566956153e-05 6.787389363896231e-05)
(1.000003667845212 1.58931697240389e-05 6.924163552525152e-05)
(1.000006431448011 1.633938086981725e-05 7.197511283870934e-05)
(1.000009686776784 1.70043246363604e-05 7.606688073013932e-05)
(1.000013658216195 1.788123581561722e-05 8.149697178848816e-05)
(1.000018596083416 1.8958474071157e-05 8.822175683192032e-05)
(1.000024780810676 2.021711945522331e-05 9.615825994329734e-05)
(1.000032523429948 2.162782795173672e-05 0.0001051635250909718)
(1.000001757627205 8.743071975367165e-06 5.965259053810115e-05)
(1.000005365139083 8.850085230729573e-06 6.078678340836684e-05)
(1.000009252037961 9.062599717025637e-06 6.304802422628577e-05)
(1.000013613070713 9.377341353365682e-06 6.641908101947374e-05)
(1.000018654872276 9.788767101720276e-06 7.086664726220767e-05)
(1.000024598842994 1.028829097116089e-05 7.633214351880777e-05)
(1.00003168171353 1.086323809004073e-05 8.271917507733121e-05)
(1.000040152533378 1.149554121355583e-05 8.987770599023006e-05)
(1.000050264430763 1.216023673563979e-05 9.758545715909103e-05)
(1.000062259160061 1.282389051280246e-05 0.0001055278445960538)
(1.000076342369544 1.344319806713937e-05 0.0001132790450913436)
(1.000001826646703 1.432557929882403e-05 5.870922113043479e-05)
(1.000005571208326 1.44985028388399e-05 5.980849079450957e-05)
(1.000009592028096 1.484176786850568e-05 6.199925268564215e-05)
(1.000014081225541 1.534980766632295e-05 6.526310233977701e-05)
(1.000019241983446 1.601325555135466e-05 6.95652200047245e-05)
(1.000025291079307 1.681770443182934e-05 7.484550645562178e-05)
(1.000032459111619 1.7742038046696e-05 8.100654894768913e-05)
(1.000040987197526 1.875636447315768e-05 8.789852498857798e-05)
(1.000051118564597 1.981965194724895e-05 9.530159356520103e-05)
(1.000063083173771 2.087728647202469e-05 0.0001029071067088365)
(1.000002276480138 8.055973178446745e-06 4.962495159910685e-05)
(1.000006916879941 8.138498416980504e-06 5.050797358480016e-05)
(1.000011820855256 8.301687638564756e-06 5.226407326740457e-05)
(1.000017168061637 8.541638915091942e-06 5.487106167459531e-05)
(1.000023143151979 8.85205258112645e-06 5.828988798254167e-05)
(1.000029935846265 9.223702482337208e-06 6.245770928011967e-05)
(1.000037738832954 9.643752225762386e-06 6.727874862274149e-05)
(1.000046742581912 1.00949543560531e-05 7.261326349846593e-05)
(1.000057126015672 1.05548040357557e-05 7.826534309051373e-05)
(1.000069041965646 1.099477052766037e-05 8.397086753649374e-05)
(1.000082596565986 1.13797987353103e-05 8.938780974346421e-05)
(1.00000232971638 1.320537512672343e-05 4.885367566851266e-05)
(1.000007075377898 1.333882485406181e-05 4.971005512605292e-05)
(1.00001208086711 1.36026143380875e-05 5.141256570960697e-05)
(1.000017522957228 1.399023603117546e-05 5.393849024862084e-05)
(1.000023582849036 1.449121306480237e-05 5.724819324234184e-05)
(1.000030446031247 1.509025539255625e-05 6.127846090937151e-05)
(1.000038300008442 1.576617385311593e-05 6.593375074375619e-05)
(1.000047329011879 1.649061655588437e-05 7.107569079751059e-05)
(1.000057704695154 1.722674740650518e-05 7.651155350721165e-05)
(1.000069571818753 1.792806900508181e-05 8.198301844781897e-05)
(1.000083028170302 1.853769947116658e-05 8.715733745735909e-05)
(1.000002672185682 7.507310539181134e-06 3.907802389825293e-05)
(1.000008098515087 7.57151548963748e-06 3.973519614289153e-05)
(1.000013770950634 7.697915649733904e-06 4.103942214293198e-05)
(1.000019854093097 7.882369702053766e-06 4.296877960184595e-05)
(1.000026512471577 8.118366849659204e-06 4.548619884183004e-05)
(1.000033908734377 8.396686785056894e-06 4.853454346780482e-05)
(1.000042199966118 8.704983564897786e-06 5.203030807839829e-05)
(1.000051531506223 9.027336913589836e-06 5.585632106151338e-05)
(1.00006202766351 9.343840098078363e-06 5.985414367624634e-05)
(1.000073778857664 9.63032544053819e-06 6.381727864849874e-05)
(1.000086825050031 9.858366214544246e-06 6.74868196143292e-05)
(1.000002713611141 1.231053633657123e-05 3.847936430399103e-05)
(1.000008221487295 1.241442830852175e-05 3.911704923310537e-05)
(1.000013971478754 1.261888588078544e-05 4.038218639889327e-05)
(1.000020125268344 1.291706177001823e-05 4.225268724720167e-05)
(1.000026844095922 1.329820858669978e-05 4.469139177577562e-05)
(1.00003428683529 1.374713909108027e-05 4.76413498374538e-05)
(1.000042606242573 1.424356896623076e-05 5.10197989005251e-05)
(1.000051942778963 1.476141475922441e-05 5.471122910203853e-05)
(1.000062415439661 1.526815990440393e-05 5.856021928988678e-05)
(1.000074109164287 1.572445301998295e-05 6.236512916552446e-05)
(1.000087058737128 1.60841608499467e-05 6.587421972276001e-05)
(1.000002957122816 7.096867650524021e-06 2.815839352457232e-05)
(1.000008948328122 7.148088147849346e-06 2.861129575030021e-05)
(1.000015169923841 7.248478464622244e-06 2.950867203664087e-05)
(1.000021773651792 7.393857737667691e-06 3.083253217328941e-05)
(1.000028907693129 7.577763360776222e-06 3.25530954054497e-05)
(1.000036713673692 7.791244747275935e-06 3.462556478591336e-05)
(1.000045322102607 8.022630281193108e-06 3.69860950351301e-05)
(1.000054845840208 8.257310290998319e-06 3.954729055336319e-05)
(1.000065371293169 8.477595842453428e-06 4.219377553605653e-05)
(1.000076947237155 8.662732612057277e-06 4.477864139048829e-05)
(1.000089571511304 8.789166900751063e-06 4.712186826379905e-05)
(1.000002990175776 1.164092908152106e-05 2.773179277099689e-05)
(1.000009046157932 1.172385694674833e-05 2.817144795595408e-05)
(1.000015328492192 1.188633489458122e-05 2.904230939968692e-05)
(1.000021986062793 1.212148091168652e-05 3.032638878328487e-05)
(1.000029163963867 1.241866903158099e-05 3.199401807280472e-05)
(1.000037000452914 1.276320407653576e-05 3.40007593211112e-05)
(1.000045622383394 1.313595763006478e-05 3.628355638633573e-05)
(1.000055138732995 1.351303482162828e-05 3.875646219747966e-05)
(1.000065631948786 1.386556917670431e-05 4.130647283090011e-05)
(1.000077147033487 1.415977356387798e-05 4.379024927414168e-05)
(1.000089678635313 1.435740215748826e-05 4.603278142386205e-05)
(1.000003141262996 6.823904548984024e-06 1.698974014969765e-05)
(1.000009497017837 6.866832843872666e-06 1.725470814152574e-05)
(1.000016071516922 6.950642743535541e-06 1.777913025417913e-05)
(1.000023007245881 7.071188716762574e-06 1.855133008159908e-05)
(1.000030440969643 7.222130298467108e-06 1.955220262055442e-05)
(1.00003850005541 7.394809946726229e-06 2.075340302557929e-05)
(1.000047297467805 7.578132732092092e-06 2.211512355883509e-05)
(1.000056925175317 7.758487255155685e-06 2.358368016438755e-05)
(1.000067445848308 7.919759586633165e-06 2.508924691310593e-05)
(1.000078882953702 8.043502613733459e-06 2.65442177748464e-05)
(1.000091209677884 8.109331524200006e-06 2.78428186529588e-05)
(1.000003168968298 1.119551486278313e-05 1.673428687518287e-05)
(1.000009578808094 1.126504731264839e-05 1.699157819035381e-05)
(1.000016203381754 1.140074940743926e-05 1.750065744576606e-05)
(1.000023182395182 1.159581322688107e-05 1.824989454584137e-05)
(1.000030649693975 1.183983500202252e-05 1.922031783652438e-05)
(1.000038729571392 1.21186250281688e-05 2.038388025012379e-05)
(1.000047531791976 1.241402367993874e-05 2.170133940856319e-05)
(1.000057145085279 1.270378783194523e-05 2.311996946840285e-05)
(1.000067629004847 1.296163110443623e-05 2.457143496184003e-05)
(1.000079004269616 1.315751894663577e-05 2.597029042817315e-05)
(1.00009124202307 1.325833080454348e-05 2.721370408674494e-05)
(1.000003231553951 6.687655138965562e-06 5.678676962079062e-06)
(1.000009765910732 6.726547231756731e-06 5.765854442865302e-06)
(1.000016512853712 6.802295672391945e-06 5.938297690762192e-06)
(1.000023610048182 6.910790094929665e-06 6.191972716363081e-06)
(1.000031188411536 7.045776385764356e-06 6.520313700246534e-06)
(1.000039368127511 7.198774943610911e-06 6.913640749126275e-06)
(1.000048253461072 7.359013649225556e-06 7.358452283137268e-06)
(1.000057926182259 7.513412831216932e-06 7.83666873137834e-06)
(1.00006843756427 7.646669041409473e-06 8.324941744431143e-06)
(1.000079799150741 7.741492014032377e-06 8.79418759071335e-06)
(1.000091972797895 7.779051858514236e-06 9.209545780988699e-06)
(1.000003256656067 1.097315779987099e-05 5.593620544356253e-06)
(1.000009839898875 1.103616793926335e-05 5.678284593816822e-06)
(1.00001663174841 1.115884694852411e-05 5.845708196720381e-06)
(1.000023767139623 1.133445152906784e-05 6.091879991987152e-06)
(1.000031374163345 1.15527288201709e-05 6.410289038045012e-06)
(1.000039570082399 1.1799791049364e-05 6.791367654912527e-06)
(1.000048456190086 1.205801679304835e-05 7.221816900390898e-06)
(1.000058111331962 1.230603919237992e-05 7.683889965329831e-06)
(1.000068584066925 1.251889680143593e-05 8.154744731788599e-06)
(1.000079883669367 1.266843467205047e-05 8.606018865747323e-06)
(1.000091970475945 1.272404640202429e-05 9.003820351094784e-06)
(1.000030872970959 3.351875058777976e-05 0.000265289808528475)
(1.000055776991599 2.648965711360782e-05 0.0002217702637208785)
(1.000073019018988 2.112248749634222e-05 0.0001834445443699181)
(1.000084771852963 1.704326224686962e-05 0.0001498364433020293)
(1.000092648005141 1.396415999316283e-05 0.000120288538934017)
(1.000097822392198 1.16683515786023e-05 9.409207627670421e-05)
(1.000098098621641 1.898853445733714e-05 9.162395653799263e-05)
(1.000101135941468 9.995728108385794e-06 7.055170860782726e-05)
(1.000101229687335 1.62951502401876e-05 6.878626779632648e-05)
(1.00010315690561 1.441679464140218e-05 4.782928397416248e-05)
(1.000103176345812 8.831171719552735e-06 4.901207518196532e-05)
(1.00010433753857 8.095614265997317e-06 2.886270138109279e-05)
(1.00010425286043 1.322899845903126e-05 2.818310207221858e-05)
(1.00010486087847 7.739688155200301e-06 9.53099311819298e-06)
(1.000104746448645 1.265383861637595e-05 9.309352676044955e-06)
(0.9999875990181459 4.905245827180111e-06 0.0001061571575055302)
(0.9999850253604916 5.311942650157236e-06 0.0001162856337757864)
(0.9999833652986901 5.831919820708128e-06 0.0001292713703659117)
(0.9999830427161664 6.470866605028945e-06 0.0001452824254445916)
(0.9999846307084294 7.232953605982036e-06 0.0001644567757995116)
(0.9999888885055692 8.118548778637107e-06 0.0001868467694493975)
(0.9999970262199968 5.086663021298353e-06 0.0001173984810329482)
(0.9999994676452482 5.568894769038077e-06 0.000130553974654591)
(1.000003815745032 6.13298316877606e-06 0.0001460280949850653)
(1.000010686036773 6.773226014262996e-06 0.0001637075733947796)
(1.000020819549633 7.477430332845259e-06 0.0001833095117154975)
(1.000035069428709 8.223714400887159e-06 0.0002042940696317016)
(1.00001896836427 5.219360326269509e-06 0.0001273722383727286)
(1.000027501401471 5.67696229280696e-06 0.0001410996558164967)
(1.000038830169287 6.16583954457953e-06 0.0001559403900749344)
(1.000053525025624 6.665420410382481e-06 0.000171340144674661)
(1.000066695797699 5.458592026925814e-06 0.000141608393712672)
(0.9999967941553265 9.120790011803602e-06 0.000212335056112203)
(1.0000095609846 1.022062967116143e-05 0.0002405126818390128)
(1.000028616539928 1.137991481200528e-05 0.0002705114833953287)
(1.000054352843429 8.976567905833942e-06 0.0002257575513223891)
(1.000072138646996 7.146010422162761e-06 0.0001864761946156332)
(1.000084246101552 5.757595612546649e-06 0.0001521294959141724)
(1.000055066953077 1.251746191954734e-05 0.0003004109379038579)
(1.000090105003808 1.353109256191076e-05 0.0003278839381243063)
(1.000057206664491 3.681881816286748e-05 0.0002941233028098548)
(1.000091865054371 3.976015763648413e-05 0.0003204820843724271)
(1.000079154749998 9.673566708411222e-06 0.0002460584410965228)
(1.000109959752358 1.024562855420257e-05 0.0002633947616537066)
(1.000080416875751 2.851480905654356e-05 0.0002413908306174639)
(1.000110896391218 3.017294948742271e-05 0.0002580592194841245)
(1.000094774897184 7.561780712611762e-06 0.0002000310207097189)
(1.000121532843854 7.866690647978437e-06 0.0002106703280526594)
(1.000095491544732 2.233114175985379e-05 0.0001965651895155299)
(1.000121980743851 2.321225050234353e-05 0.0002068001094469863)
(1.000104673213274 5.993945103461861e-06 0.000161012984802288)
(1.000127875558831 6.136962535582076e-06 0.0001672956077354267)
(1.000105050390325 1.772977138295356e-05 0.0001584432536545085)
(1.000128035136516 1.814000457864847e-05 0.0001644813655674063)
(1.00011076596734 4.833604327378427e-06 0.0001277043359219155)
(1.00013100307678 4.879122876897774e-06 0.0001312174918591635)
(1.000110932690653 1.431793388120176e-05 0.0001258096778940777)
(1.000130995348765 1.444447457391524e-05 0.0001291761793816497)
(1.000114417233762 1.181152142968098e-05 9.753942132762641e-05)
(1.000132142163798 1.176900223213415e-05 9.926668752054089e-05)
(1.000116383175816 1.00073137186806e-05 7.262984857125437e-05)
(1.000132317528251 9.865749556837522e-06 7.340871870402311e-05)
(1.000116294310855 1.63010230794142e-05 7.073343245613163e-05)
(1.000132005194481 1.605800061294278e-05 7.141629268930253e-05)
(1.000117424209263 8.762800616029311e-06 5.019805309004759e-05)
(1.000132067619977 8.56487907737217e-06 5.048065929713641e-05)
(1.000117246413052 1.42961889748248e-05 4.893767687954784e-05)
(1.00013170247381 1.396485369386828e-05 4.916688681540562e-05)
(1.000117927263007 7.981950372996397e-06 2.946168194338911e-05)
(1.000131736337355 7.753973797471537e-06 2.952947454831796e-05)
(1.000117700303676 1.303664075478465e-05 2.87413686297116e-05)
(1.000131345040212 1.265819162247555e-05 2.878257880922773e-05)
(1.000118124448929 7.605611716018501e-06 9.712541396903387e-06)
(1.000131524491344 7.364674481269322e-06 9.718917944872669e-06)
(1.000117875713124 1.242911466963081e-05 9.47825034132718e-06)
(1.000131122587701 1.20303480328731e-05 9.476617451054502e-06)
(1.000060495381872 5.304768214780893e-05 0.000396447327660708)
(0.9999980884363689 4.312237352869712e-06 9.143489988992135e-05)
(0.9999943300681238 4.409583835441527e-06 9.384778956546192e-05)
(0.9999907763469877 4.606088253983556e-06 9.87231542218037e-05)
(0.9999978328882428 3.982436507989901e-06 8.752869602984881e-05)
(0.9999966762145174 4.137559004643028e-06 9.170298024530947e-05)
(0.9999959816592772 4.372120101281326e-06 9.802873298053012e-05)
(0.9999959952105305 4.687942589706921e-06 0.0001065717168995216)
(1.000005086885258 4.144272895063677e-06 9.564787050591662e-05)
(1.00000820406565 4.44659408244709e-06 0.0001044985905266502)
(1.000012694816335 4.806492722152865e-06 0.0001151057705709637)
(1.000023158209094 4.172547591303741e-06 9.936085752734947e-05)
(1.000030737983326 4.4715898324679e-06 0.0001089141858350075)
(1.000040274479611 4.794937915961014e-06 0.0001193994529831319)
(1.000052140055948 5.129844587448071e-06 0.0001304664834764478)
(1.000049823424032 4.095654132554204e-06 9.875568510774198e-05)
(1.000061832286472 4.321567839846333e-06 0.0001068725613860188)
(1.000075961717074 4.532897583224567e-06 0.0001148097196985387)
(1.000082371428773 3.833321332226238e-06 9.053202399706603e-05)
(1.000092352724466 4.711372431641364e-06 0.000122007653457834)
(1.000097675925038 3.932386878612876e-06 9.535975620977565e-05)
(1.000114379957829 3.982504911830943e-06 9.891749586322854e-05)
(1.000132244897332 3.969961749566304e-06 0.000100731556267554)
(1.000116424436059 3.370608679780376e-06 7.36034351535754e-05)
(1.000132472726821 3.324074179083249e-06 7.443258793326489e-05)
(1.000134849399591 1.427508048400248e-05 0.0003499756406623559)
(1.000189068712796 1.450260110137898e-05 0.0003621730140925179)
(1.000250113491017 1.397237638531515e-05 0.0003589782299803393)
(1.000135822586419 4.197394850730459e-05 0.0003415697702290976)
(1.000188766790884 4.291322302593254e-05 0.0003534365468998514)
(1.000249273819958 4.203460672020984e-05 0.0003523680187873431)
(1.000147165675282 1.06086018898823e-05 0.000275643959484495)
(1.000190169218825 1.065348850832463e-05 0.0002799890110961016)
(1.000237333404721 1.029905089302191e-05 0.0002736239445241963)
(1.000147574675353 3.123189581756229e-05 0.0002697411176137082)
(1.000189860185201 3.139971371589652e-05 0.0002737949544069937)
(1.000236292771357 3.042500254583526e-05 0.0002675949804499262)
(1.000152476990574 8.008647283520522e-06 0.0002168965902560526)
(1.000186922909354 7.927197208142109e-06 0.0002168846490737287)
(1.000223569839262 7.572508220112803e-06 0.0002089092881141048)
(1.000152538202268 2.361620786390994e-05 0.0002126992497495955)
(1.000186487011478 2.336965750024268e-05 0.0002125055366347369)
(1.000222561869346 2.231984460333959e-05 0.0002045409436726107)
(1.000153766968674 6.152873240861623e-06 0.0001699280661445926)
(1.000181684538898 6.004975332311504e-06 0.0001677113412490503)
(1.000210565109874 5.662125352039642e-06 0.0001595636872395318)
(1.000153635385547 1.817547115066793e-05 0.0001669294162107232)
(1.000181193852739 1.772911545159968e-05 0.0001646238601108282)
(1.000209663012422 1.670825610330373e-05 0.0001565123702993373)
(1.000152918612252 4.825478799942834e-06 0.0001318175407827959)
(1.000175913129565 4.649869277733982e-06 0.0001287171505245292)
(1.000199124328825 4.3336721604505e-06 0.0001212437075871684)
(1.0001526895701 1.427793820136548e-05 0.0001296759484041338)
(1.000175421285053 1.375155613145603e-05 0.0001265427952439697)
(1.000198339460159 1.281061923089447e-05 0.0001191232717120975)
(1.000151110928429 3.879535522281961e-06 0.0001003009940066268)
(1.000170452261876 3.696957146662742e-06 9.711302937024989e-05)
(1.000189570128075 3.411410750397303e-06 9.075434223876514e-05)
(1.000150838017785 1.149602505707571e-05 9.878409374272838e-05)
(1.000169984049663 1.095075162786121e-05 9.559184428057541e-05)
(1.000188890323704 1.010154203691476e-05 8.928836216393654e-05)
(1.000149074755839 3.21527562360704e-06 7.360888313682164e-05)
(1.000165771997651 3.035184071797486e-06 7.080465178794441e-05)
(1.000181990824837 2.777631539710861e-06 6.57704104168289e-05)
(1.000148785890469 9.539781373840606e-06 7.255967456068144e-05)
(1.000165334244185 9.002906314724625e-06 6.976295242486989e-05)
(1.000181395915789 8.23710290325923e-06 6.477597355156245e-05)
(1.000147257076842 2.765794625968719e-06 5.033643841994947e-05)
(1.000162125679133 2.591230771833944e-06 4.818902894919375e-05)
(1.000176372080967 2.355882448039496e-06 4.456793410337849e-05)
(1.000146965225768 8.214589859569075e-06 4.965093200434653e-05)
(1.000161715649325 7.694643239274578e-06 4.751351103288818e-05)
(1.000175840051811 6.99483898679115e-06 4.392757589986201e-05)
(1.000172665875987 2.097932948365861e-06 2.582201238368327e-05)
(1.000145633974732 7.39376320001796e-06 2.895039188732269e-05)
(1.000159254488619 6.889210464393324e-06 2.761938409208703e-05)
(1.000172175049989 6.234344795244825e-06 2.546364288308011e-05)
(1.000144936191952 7.001199473205162e-06 9.513113947464112e-06)
(1.000158011776759 6.505405492999137e-06 9.062039672386757e-06)
(1.000170355604242 5.873170870572041e-06 8.343250712849701e-06)
(1.000110741382131 1.953261865222103e-05 0.0004449632555396535)
(1.000180606028707 1.992846891454553e-05 0.0004715900947351214)
(1.00025844648179 1.731595996476582e-05 0.0004670145381008949)
(1.000112568103438 5.735784722415182e-05 0.0004325856201601549)
(1.000178389518235 5.975277210558626e-05 0.0004580764217893177)
(1.000258501261223 5.752573176379668e-05 0.0004721911306271974)
(1.000148211912597 1.551595845588361e-05 7.051980793608565e-05)
(1.000146386841007 1.338607662758304e-05 4.831622130959886e-05)
(1.000160905928259 1.253230745930529e-05 4.61992394062122e-05)
(1.000174791810185 1.138751572858603e-05 4.268257905537392e-05)
(1.00014505946663 1.206473712358758e-05 2.819547584326116e-05)
(1.00015848486404 1.123694408501526e-05 2.687966389284355e-05)
(1.000171207574098 1.016545136970081e-05 2.476609722783159e-05)
(1.000144365429558 1.143220392669703e-05 9.268838147758429e-06)
(1.000157262998593 1.061904393793387e-05 8.823265307858541e-06)
(1.00016942797767 9.584426545632362e-06 8.118599298685702e-06)
(0.9999992496708194 3.905279611513809e-06 8.545518680372994e-05)
(1.000000235999499 3.538415969592354e-06 7.807293248628153e-05)
(1.000000800997052 3.598875326876076e-06 7.98169747239482e-05)
(1.000001651385254 3.719941664784486e-06 8.331589073754317e-05)
(1.000002998781099 3.901776553998873e-06 8.8587414336719e-05)
(1.000001056000281 3.215001321717516e-06 6.955291934691575e-05)
(1.000003263095009 3.261932317969189e-06 7.098797658008248e-05)
(1.000005759884115 3.355531637113936e-06 7.385784376424102e-05)
(1.000008754066888 3.495163305237232e-06 7.815845615018958e-05)
(1.000012474643014 3.679589168819065e-06 8.387453600707351e-05)
(1.000017179045069 3.906608296729368e-06 9.096789837506408e-05)
(1.000005259668775 2.973220245477763e-06 6.128437239272036e-05)
(1.000009077953384 3.045126587300573e-06 6.358177943247325e-05)
(1.000013373212346 3.151655190330856e-06 6.700788233334365e-05)
(1.000018353807565 3.290969343659577e-06 7.153019207514939e-05)
(1.000024243470084 3.460214555975374e-06 7.709096623219023e-05)
(1.00003128204263 3.655162881068123e-06 8.359440630865103e-05)
(1.000039722623848 3.869768669632586e-06 9.089045608196259e-05)
(1.000016986351408 2.869703824064669e-06 5.534582563197366e-05)
(1.000022917837055 2.9747559714593e-06 5.882067347528473e-05)
(1.000029674124093 3.100603242006994e-06 6.305917795319717e-05)
(1.000037450537868 3.242945792155843e-06 6.796548689795665e-05)
(1.000046440736368 3.395995456994635e-06 7.339920725700745e-05)
(1.000056827374391 3.552185476808955e-06 7.916285103540001e-05)
(1.00006876744892 3.701904767015872e-06 8.498937453368572e-05)
(1.00003371488399 2.821379944305769e-06 4.898983591589043e-05)
(1.0000419913587 2.92580123053251e-06 5.254588955692377e-05)
(1.000051319893847 3.035096552566587e-06 5.644114920663983e-05)
(1.000061827525848 3.142566857773394e-06 6.051566010557277e-05)
(1.000073607501324 3.240067889286368e-06 6.45604614035731e-05)
(1.000086702469529 3.318006087526228e-06 6.831298693273807e-05)
(1.000054695141574 2.774929875950568e-06 3.995093100980697e-05)
(1.000065236662019 2.849725850341829e-06 4.264707276145297e-05)
(1.000076843251706 2.912777987910229e-06 4.52840514460952e-05)
(1.000089514407186 2.956139731623295e-06 4.767928649510998e-05)
(1.000078819436977 2.703422337014262e-06 2.683752727332493e-05)
(1.000091191214213 2.726176046011909e-06 2.816460549089833e-05)
(1.000101084320534 3.365485799957785e-06 7.145713021576138e-05)
(1.000103183456557 2.971120586943927e-06 4.961801183525685e-05)
(1.000104378459864 2.722181861298975e-06 2.92106021189345e-05)
(1.000104917207522 2.601767210238555e-06 9.644414151402157e-06)
(1.000117511840238 2.948932177918233e-06 5.08443120280618e-05)
(1.000132250684565 2.883067199395322e-06 5.115486882385751e-05)
(1.000118040505359 2.684535060926636e-06 2.98307223169012e-05)
(1.000131933227385 2.608364765768635e-06 2.991242658210989e-05)
(1.00011824902963 2.55715709445578e-06 9.832527763743305e-06)
(1.000131726999942 2.476543507256243e-06 9.843095771605379e-06)
(1.000145924229963 2.487606863228567e-06 2.933773644941551e-05)
(1.000159644282446 2.318145196908294e-06 2.799918770196476e-05)
(1.000145224698546 2.354625984553326e-06 9.638389517934173e-06)
(1.0001583910272 2.188081659226067e-06 9.184571365646135e-06)
(1.000170826098048 1.975495803522328e-06 8.458600955377183e-06)
(1.000315939014484 1.3663010433232e-05 0.000342297600163835)
(1.000383153866813 1.218131967900903e-05 0.0003029523784324946)
(1.000444728647995 9.73386271981884e-06 0.0002399276384778604)
(1.00031414643161 4.019472639075197e-05 0.0003325299340299865)
(1.000379221167788 3.541395485290458e-05 0.0002934657579067926)
(1.000439614989866 2.756114397043888e-05 0.0002318540426599759)
(1.000286410075013 9.613151900376899e-06 0.0002550013665121079)
(1.000334184598088 8.350337509059654e-06 0.0002214843549316251)
(1.000376027204427 6.51107489095943e-06 0.0001724061729337045)
(1.000284459958661 2.824836219770902e-05 0.0002486488767642895)
(1.00033107989965 2.442182433200563e-05 0.0002155800107422531)
(1.000371913759909 1.886211677255052e-05 0.0001675315494634423)
(1.000260552637264 6.919602250916717e-06 0.0001916855301235979)
(1.00029541538279 5.913436187688435e-06 0.0001642428311588482)
(1.000325154948211 4.55867733153259e-06 0.0001266465969126693)
(1.000258892434483 2.036065620374439e-05 0.0001874368325296627)
(1.000293052578349 1.73692506954388e-05 0.0001604407446549038)
(1.000322162071312 1.335429492046152e-05 0.0001236285028660625)
(1.000238962190337 5.103253150578233e-06 0.0001446988434895287)
(1.000265095621413 4.314402298399051e-06 0.0001227522001699685)
(1.000286978189159 3.307127661560557e-06 9.404043595017295e-05)
(1.000237613593401 1.504747212740218e-05 0.0001418213852532895)
(1.000263298157511 1.271244901594851e-05 0.0001202360521860441)
(1.000284785982844 9.738247766273703e-06 9.208011458031981e-05)
(1.000221448859787 3.865341695608095e-06 0.0001089529090408117)
(1.000241602422399 3.242632396934803e-06 9.173689062881761e-05)
(1.000258231382517 2.477747597699878e-06 6.994101474493304e-05)
(1.000220357151501 1.142120462682368e-05 0.0001069878158641951)
(1.000240213865913 9.578289837255456e-06 9.004332993031459e-05)
(1.000256586952985 7.318495357814421e-06 6.863436594652526e-05)
(1.000207617952539 3.017450965532246e-06 8.0983903203975e-05)
(1.000223654415022 2.516787522108009e-06 6.78021238974595e-05)
(1.000236726888504 1.9201419912428e-06 5.150784227502561e-05)
(1.00020672281275 8.9326572515235e-06 7.964154216689404e-05)
(1.000222556397528 7.449676166488077e-06 6.665680969961982e-05)
(1.00023545705033 5.684526319115531e-06 5.062997120251383e-05)
(1.000197067382426 2.440534230787858e-06 5.838028330184986e-05)
(1.000210290855849 2.026967183819243e-06 4.867299106107215e-05)
(1.000220964126356 1.545933204850574e-06 3.688039239330752e-05)
(1.000196316308221 7.236439508366529e-06 5.747769646954712e-05)