/*--------------------------------*- C++ -*----------------------------------*\
  =========                 |
  \\      /  F ield         | OpenFOAM: The Open Source CFD Toolbox
   \\    /   O peration     | Website:  https://openfoam.org
    \\  /    A nd           | Version:  7
     \\/     M anipulation  |
\*---------------------------------------------------------------------------*/
FoamFile
{
    version     2.0;
    format      ascii;
    class       volVectorField;
    location    "0";
    object      grad(Phi);
}
// * * * * * * * * * * * * * * * * * * * * * * * * * * * * * * * * * * * * * //

dimensions      [0 1 -1 0 0 0 0];

internalField   nonuniform List<vector> 
12679
(
(-1.000169587432703 3.503892927470025e-07 -4.296484116167968e-06)
(-1.000170980734354 1.580217919142082e-06 -4.400399408119843e-06)
(-1.000173796214677 2.645334576723017e-06 -4.613314623658599e-06)
(-1.000178091650034 3.728158874949369e-06 -4.945670255496149e-06)
(-1.000183953584245 4.8361069837909e-06 -5.413797913874926e-06)
(-1.000191496656908 5.976506721391805e-06 -6.040695838544163e-06)
(-1.000200861733485 7.155892766550007e-06 -6.85698580608954e-06)
(-1.000212211808511 8.378658296837121e-06 -7.90192060520286e-06)
(-1.000225724161765 9.644782842127607e-06 -9.224183262184311e-06)
(-1.000241576637497 1.094631274489703e-05 -1.088200839748708e-05)
(-1.000259925252108 1.226229429296394e-05 -1.294184768165675e-05)
(-1.000165329102708 3.165137806293748e-07 -4.081824230984957e-06)
(-1.00016653240018 1.425482637387742e-06 -4.173894390004594e-06)
(-1.000168958326416 2.379690851123117e-06 -4.361914131493303e-06)
(-1.000172645178159 3.339636813676209e-06 -4.653782790321157e-06)
(-1.000177649340472 4.307294422384302e-06 -5.061684187928227e-06)
(-1.000184043590905 5.283981836620811e-06 -5.602436413356679e-06)
(-1.000191914087263 6.269661090505021e-06 -6.297851265244078e-06)
(-1.000201355310877 7.261799639862655e-06 -7.174968830943376e-06)
(-1.000212461977493 8.25365870191218e-06 -8.265941337191816e-06)
(-1.000225316667442 9.231894115460559e-06 -9.607208054314851e-06)
(-1.000239971756246 1.0173442698852e-05 -1.123743002616708e-05)
(-1.000161398816589 2.868170400905864e-07 -3.788251243547771e-06)
(-1.000162436703454 1.290124807901295e-06 -3.868196633241047e-06)
(-1.000164524580235 2.148307304966576e-06 -4.030963752007038e-06)
(-1.000167686114966 3.003397030784623e-06 -4.282360729644531e-06)
(-1.000171955357757 3.853572874218399e-06 -4.631220604253396e-06)
(-1.000177374694142 4.696190819886101e-06 -5.089492884061468e-06)
(-1.000183991595181 5.527198476906637e-06 -5.672264292307074e-06)
(-1.000191853700892 6.340279293748395e-06 -6.397598032796678e-06)
(-1.000201001659258 7.125677932207161e-06 -7.286024362742692e-06)
(-1.000211459080038 7.868699459886951e-06 -8.359445614472523e-06)
(-1.000223219016988 8.547963791627528e-06 -9.639144870862304e-06)
(-1.000157855973559 2.61313392507827e-07 -3.424715066575761e-06)
(-1.000158752815741 1.174101825054937e-06 -3.492651188769141e-06)
(-1.000160553269681 1.950735179848084e-06 -3.630597256286322e-06)
(-1.000163270297074 2.717942216706763e-06 -3.842706029584511e-06)
(-1.000166921825966 3.471336119595334e-06 -4.135204108531756e-06)
(-1.00017152873535 4.205758016850916e-06 -4.51634359146029e-06)
(-1.000177111841519 4.914837900743553e-06 -4.996256319000804e-06)
(-1.000183687620634 5.590405281197206e-06 -5.586630326291062e-06)
(-1.000191262372984 6.22174513517649e-06 -6.300097551630854e-06)
(-1.000199824559351 6.794733589193817e-06 -7.14919201052369e-06)
(-1.000209335168496 7.290954300548439e-06 -8.144718634172408e-06)
(-1.000154747776754 2.399087652427733e-07 -3.000448442610777e-06)
(-1.000155527078347 1.076889682843925e-06 -3.056735660951079e-06)
(-1.000157088614411 1.785750505550661e-06 -3.170763417061942e-06)
(-1.000159437706492 2.480768505244709e-06 -3.345417606408619e-06)
(-1.000162580934219 3.155876827989908e-06 -3.584963445412448e-06)
(-1.000166524337215 3.804386744757438e-06 -3.894935019585116e-06)
(-1.000171270836486 4.418687215831909e-06 -4.281929103582015e-06)
(-1.000176816745919 4.989872302810128e-06 -4.753249870146686e-06)
(-1.000183147255127 5.507310473537652e-06 -5.316337087810171e-06)
(-1.000190230822966 5.958199052968916e-06 -5.977901551366012e-06)
(-1.000198012548185 6.327189472396556e-06 -6.742696503768762e-06)
(-1.000152110799949 2.224484084157153e-07 -2.524808665976988e-06)
(-1.000152794864441 9.977041729448046e-07 -2.569927843801965e-06)
(-1.000154163238788 1.651743164909912e-06 -2.661153588599244e-06)
(-1.000156215934612 2.288949330200877e-06 -2.800430230209797e-06)
(-1.000158951750437 2.902193084519675e-06 -2.990589690847458e-06)
(-1.000162366753315 3.483900728032427e-06 -3.235226410424796e-06)
(-1.000166452173301 4.02586894837621e-06 -3.538491075196133e-06)
(-1.000171191667011 4.519054154675185e-06 -3.904770330283226e-06)
(-1.000176557934069 4.953355893913622e-06 -4.338214368151874e-06)
(-1.000182508729846 5.317432765522432e-06 -4.842075459645371e-06)
(-1.000188982423449 5.598613815008229e-06 -5.417832155867157e-06)
(-1.000149972599301 2.08755047220765e-07 -2.007185770804167e-06)
(-1.000150582427665 9.356752986994461e-07 -2.041641192658867e-06)
(-1.000151800505508 1.547015891056833e-06 -2.11119747488134e-06)
(-1.000153623267177 2.139566827916193e-06 -2.217115153411501e-06)
(-1.000156044337674 2.705552212767226e-06 -2.361203782095184e-06)
(-1.000159053284281 3.23691745382488e-06 -2.545709047408381e-06)
(-1.000162633935289 3.725231013121396e-06 -2.773137747981599e-06)
(-1.000166762272589 4.16158746367741e-06 -3.046001518755244e-06)
(-1.000171403936377 4.536530160984001e-06 -3.366459606895484e-06)
(-1.000176511432346 4.840023487120944e-06 -3.735845116339796e-06)
(-1.000182021209419 5.06151779584856e-06 -4.154070547965377e-06)
(-1.000148353220288 1.986577599922349e-07 -1.456956608376187e-06)
(-1.000148908588935 8.899777651505876e-07 -1.481204217216473e-06)
(-1.000150016564295 1.470002276987533e-06 -1.530096342139831e-06)
(-1.000151671276885 2.030014226300827e-06 -1.604402342739476e-06)
(-1.000153863060342 2.561863694308624e-06 -1.70521175686623e-06)
(-1.000156577424639 3.057254834792929e-06 -1.83384775672397e-06)
(-1.000159793708465 3.507708888766964e-06 -1.991737624668282e-06)
(-1.000163483445614 3.904542229371517e-06 -2.180229881109529e-06)
(-1.000167608510092 4.238875024986761e-06 -2.400349045476511e-06)
(-1.000172119147073 4.501692862271482e-06 -2.652482541242191e-06)
(-1.000176952053088 4.683989654391483e-06 -2.936003438897966e-06)
(-1.00014726649513 1.920126506405651e-07 -8.834681311462554e-07)
(-1.000147786163288 8.599234315870986e-07 -8.978653540945707e-07)
(-1.000148822035127 1.419417832479434e-06 -9.268727849312209e-07)
(-1.000150366880872 1.958197291235281e-06 -9.709008494357789e-07)
(-1.000152409110769 2.467912319711866e-06 -1.030524383229917e-06)
(-1.000154931902353 2.940158519315617e-06 -1.106429035058157e-06)
(-1.000157912079069 3.366478098579214e-06 -1.199332578405049e-06)
(-1.000161318789131 3.738382777840314e-06 -1.309876314753645e-06)
(-1.000165112060808 4.04741133441804e-06 -1.438482914473921e-06)
(-1.000169241345188 4.285238579648732e-06 -1.585179468142836e-06)
(-1.000173644199124 4.443855041655407e-06 -1.749389978142831e-06)
(-1.000146721061654 1.88716820337447e-07 -1.973584625992846e-07)
(-1.000147223066408 8.450229451590119e-07 -2.005406435816066e-07)
(-1.000148223285557 1.394358371098421e-06 -2.069495803001203e-07)
(-1.000149713860807 1.922660785205749e-06 -2.16670871596971e-07)
(-1.000151682319951 2.421495216342594e-06 -2.298236531467159e-07)
(-1.000154110782569 2.882417775504404e-06 -2.46548547328918e-07)
(-1.000156974952239 3.296995634796629e-06 -2.66990108933248e-07)
(-1.000160242949811 3.656850809871614e-06 -2.912728918326465e-07)
(-1.000163874068042 3.953739616119394e-06 -3.194704561314931e-07)
(-1.000167817558581 4.179681974900112e-06 -3.515673311972951e-07)
(-1.000172011596814 4.327155348746197e-06 -3.874149373489912e-07)
(-1.000182028734366 4.777168929959029e-06 -3.248846579773508e-06)
(-1.0001782453044 4.515920647347175e-06 -1.929709142558977e-06)
(-1.000176382603231 4.389422833554814e-06 -4.266843749089662e-07)
(-1.000280869797319 1.355600509734632e-05 -1.547440994667803e-05)
(-1.000256424323204 1.104446119293622e-05 -1.319345819353622e-05)
(-1.000236226688331 9.135328721825811e-06 -1.114253786111045e-05)
(-1.000219716266373 7.688064228311614e-06 -9.293387904953578e-06)
(-1.000206406811428 6.596896485746489e-06 -7.611885468439311e-06)
(-1.000195893405904 5.783410400251629e-06 -6.064103285277906e-06)
(-1.000187850879554 5.190410419647199e-06 -4.618930512797349e-06)
(-1.000310173484212 1.685280364648651e-05 -1.799547209082106e-05)
(-1.000340485998164 1.873936102419112e-05 -2.202432088126005e-05)
(-1.000374115091415 2.046195704246826e-05 -2.692194205872965e-05)
(-1.000304109919622 1.473717988057845e-05 -1.850810791027013e-05)
(-1.000329349634939 1.570962288515847e-05 -2.206198374757995e-05)
(-1.000274356434861 1.177858515244792e-05 -1.547456833015695e-05)
(-1.000293479182564 1.231182145092854e-05 -1.807147458368341e-05)
(-1.000250182212788 9.583745041705354e-06 -1.285664474637484e-05)
(-1.000264829348203 9.851523985001607e-06 -1.47638926786399e-05)
(-1.000230699381001 7.953319798525059e-06 -1.057839307625788e-05)
(-1.000242066564055 8.059943930007232e-06 -1.198132604276938e-05)
(-1.000215178787111 6.744796960904909e-06 -8.56892939490968e-06)
(-1.000224146239109 6.75406590015056e-06 -9.59743777349468e-06)
(-1.000203037431438 5.856428403985068e-06 -6.766518345767677e-06)
(-1.000210262278727 5.807438061555829e-06 -7.511698065829582e-06)
(-1.000193821394235 5.216154410660181e-06 -5.119022362699608e-06)
(-1.000199804007427 5.132819800857165e-06 -5.644178450551312e-06)
(-1.000187189118881 4.773849240586705e-06 -3.58284742672461e-06)
(-1.000192321507281 4.670812849443072e-06 -3.930941298411452e-06)
(-1.000182897173027 4.495952101249666e-06 -2.121255030428341e-06)
(-1.000187499133981 4.38231508116139e-06 -2.319884157120784e-06)
(-1.000180789343607 4.361888898467793e-06 -4.682940810685552e-07)
(-1.000185136548692 4.243647188352017e-06 -5.113348272540741e-07)
(-1.000411075129427 2.180177423342184e-05 -3.291837533348135e-05)
(-1.000450459949081 2.167762363870251e-05 -4.051369628683338e-05)
(-1.000461865392994 5.250992594916557e-05 6.568386989938662e-05)
(-1.000534951022094 2.358764295142066e-05 -5.290937410934577e-05)
(-1.000576372773254 2.035634425066146e-05 -6.314347093377428e-05)
(-1.000356488907481 1.635143215520478e-05 -2.618047693265059e-05)
(-1.000384835986404 1.644783087993384e-05 -3.074758526363211e-05)
(-1.000413370123422 1.615038930373576e-05 -3.484196588847832e-05)
(-1.000441151073511 1.528939574608929e-05 -4.034144271867696e-05)
(-1.000466970379331 1.312702981900347e-05 -4.587765390330186e-05)
(-1.000313667100558 1.257531108450194e-05 -2.098926143271842e-05)
(-1.000334392002985 1.247677456474631e-05 -2.414818520641126e-05)
(-1.000354951928862 1.197073495769082e-05 -2.737490781056775e-05)
(-1.000374530828739 1.09712296422118e-05 -3.077327327958803e-05)
(-1.000392145766731 9.303694453391155e-06 -3.404984495639576e-05)
(-1.000406419415023 6.926465673752768e-06 -3.665270528103764e-05)
(-1.000280047102209 9.896318306885808e-06 -1.685927427469042e-05)
(-1.0002954284226 9.664543518848502e-06 -1.908871600068639e-05)
(-1.000310460073988 9.11274995860293e-06 -2.13701592445213e-05)
(-1.000324540368611 8.198803173598015e-06 -2.363125812377815e-05)
(-1.000336987138527 6.88147934127317e-06 -2.572636321463637e-05)
(-1.000347041666727 5.178389268842543e-06 -2.742443672389456e-05)
(-1.000253711773818 7.981176420056932e-06 -1.349427603199695e-05)
(-1.000265320809735 7.684991996061486e-06 -1.507706519207902e-05)
(-1.000276514771821 7.14532391118313e-06 -1.667341928822059e-05)
(-1.000286862618826 6.343760223408277e-06 -1.821501392658365e-05)
(-1.000295899358572 5.27431059246164e-06 -1.961170529440883e-05)
(-1.000303155436223 3.959312396785787e-06 -2.075207414054367e-05)
(-1.000233220236739 6.607804192234508e-06 -1.068939181590014e-05)
(-1.000242157099638 6.287431634947932e-06 -1.181468173703542e-05)
(-1.000250674482639 5.779397823048581e-06 -1.29331709995827e-05)
(-1.000258461936999 5.077546976548219e-06 -1.399579975045389e-05)
(-1.000265197102888 4.186433692744184e-06 -1.49450073798533e-05)
(-1.000270569076611 3.126199769566987e-06 -1.571857669352802e-05)
(-1.000217494585027 5.625862319592377e-06 -8.292725880619734e-06)
(-1.000224542938742 5.301490299109305e-06 -9.087530759795822e-06)
(-1.000231193243676 4.828385362130567e-06 -9.867929535058694e-06)
(-1.000237217318731 4.206644654622642e-06 -1.060051491741562e-05)
(-1.000242385244253 3.444254499086178e-06 -1.12482219618858e-05)
(-1.000246481418603 2.558789691285303e-06 -1.177340680554556e-05)
(-1.000205737952815 4.933842722453507e-06 -6.189017820998855e-06)
(-1.000211469345662 4.614138375653806e-06 -6.737957791570161e-06)
(-1.00021683122532 4.172198534734514e-06 -7.271784300739542e-06)
(-1.000221650409227 3.611302274057891e-06 -7.768388037504419e-06)
(-1.000225756632389 2.940504580811265e-06 -8.204053380880331e-06)
(-1.000228993558892 2.17526781557486e-06 -8.555449204790325e-06)
(-1.00019737440495 4.463972177118139e-06 -4.289357042162348e-06)
(-1.000202219595 4.151298800483666e-06 -4.647800951096048e-06)
(-1.000206721411315 3.733789130185752e-06 -4.993907439323917e-06)
(-1.000210742266365 3.216322188539016e-06 -5.313766695767309e-06)
(-1.000214149572161 2.608182196841074e-06 -5.592782662902505e-06)
(-1.00021682362398 1.923271356661289e-06 -5.816862259033791e-06)
(-1.000192005717154 4.172343457696976e-06 -2.523379945869228e-06)
(-1.000196304658896 3.865714876837496e-06 -2.725895271016693e-06)
(-1.000200279339919 3.464762395706448e-06 -2.920526171878243e-06)
(-1.000203813449412 2.975134454139243e-06 -3.099622208924888e-06)
(-1.000206796555646 2.406080722396318e-06 -3.255264738306851e-06)
(-1.000209130203585 1.770486799646768e-06 -3.379893604677505e-06)
(-1.000189381701539 4.032678319866066e-06 -5.55320137935128e-07)
(-1.000193420173345 3.729421857104124e-06 -5.989867413410494e-07)
(-1.000197144347426 3.336789818854707e-06 -6.408557572160677e-07)
(-1.000200447862003 2.860739095995799e-06 -6.793005654342139e-07)
(-1.000203230547661 2.310458003550747e-06 -7.126487061198866e-07)
(-1.000205403715223 1.69833289999687e-06 -7.393120648476402e-07)
(-1.000261798822415 1.43203558984339e-05 -4.380994169003039e-06)
(-1.000290081451593 1.865995643585137e-05 -5.462501346230977e-06)
(-1.000327586844823 2.424821474249216e-05 -7.043473269233807e-06)
(-1.000377350836326 3.167208922506836e-05 -9.387192491115576e-06)
(-1.000443760135393 4.184508557213111e-05 -1.293035275545047e-05)
(-1.000538762249548 5.642127578480329e-05 -1.88381002491393e-05)
(-1.000200745716242 6.554196971819718e-07 -3.060954874085154e-06)
(-1.000203888343922 2.987849122740299e-06 -3.176762113647419e-06)
(-1.000210345022299 5.112232912954367e-06 -3.420188936214511e-06)
(-1.000220475238315 7.450945811421447e-06 -3.816819686710596e-06)
(-1.000234862204331 1.012325163000919e-05 -4.410374065134024e-06)
(-1.000254372744269 1.328785356671797e-05 -5.270485880657295e-06)
(-1.000280250436766 1.716401538623404e-05 -6.505761189658769e-06)
(-1.000314256771185 2.206340675588165e-05 -8.285366942006095e-06)
(-1.000358884693642 2.844263222728802e-05 -1.087486812962171e-05)
(-1.000417689587296 3.700780862254924e-05 -1.469795617448676e-05)
(-1.000495851070671 4.898691536689448e-05 -2.046348381704879e-05)
(-1.000196970170641 6.128585658960303e-07 -3.546843930907871e-06)
(-1.00019986588916 2.790004658054256e-06 -3.674605326801546e-06)
(-1.000205803172223 4.760418753649285e-06 -3.942298384792061e-06)
(-1.000215086353355 6.908303947728028e-06 -4.376121141596192e-06)
(-1.000228205068123 9.329845023053826e-06 -5.020395023346672e-06)
(-1.000245878532805 1.215013351946187e-05 -5.944759061866082e-06)
(-1.000269122839988 1.553740105088296e-05 -7.256042824611215e-06)
(-1.0002993499752 1.972306826895912e-05 -9.117638415853766e-06)
(-1.000338511798074 2.503047894857057e-05 -1.178176632274473e-05)
(-1.000389307582466 3.191401932443878e-05 -1.564705729718602e-05)
(-1.000455465745101 4.09942947977168e-05 -2.137828493674936e-05)
(-1.000192753081658 5.672034952553905e-07 -3.932956986901235e-06)
(-1.000195384716253 2.578271295503105e-06 -4.06687072093391e-06)
(-1.000200768349311 4.385662961917057e-06 -4.346464054982057e-06)
(-1.000209153722746 6.334345721489886e-06 -4.796893645435818e-06)
(-1.000220938825046 8.498590926872519e-06 -5.460251069455681e-06)
(-1.000236700352923 1.097236120112256e-05 -6.40168258622773e-06)
(-1.000257238497351 1.387781891246107e-05 -7.719263036919742e-06)
(-1.000283639817515 1.737605027567195e-05 -9.559637473305904e-06)
(-1.000317362609932 2.16800198144796e-05 -1.214285547129197e-05)
(-1.000360347552634 2.706855720090157e-05 -1.580203125896429e-05)
(-1.000415145958289 3.390424938673487e-05 -2.104470853686795e-05)
(-1.000188228701443 5.20394320968704e-07 -4.213778559781754e-06)
(-1.000190590536838 2.361729480399108e-06 -4.348591854056954e-06)
(-1.000195410599966 4.004323581843723e-06 -4.629007840683315e-06)
(-1.000202887647311 5.754738825594637e-06 -5.077924819532119e-06)
(-1.000213335085492 7.667742191519363e-06 -5.733189195297483e-06)
(-1.000227200217108 9.810442553159799e-06 -6.652388772343469e-06)
(-1.00024509127183 1.226666206069485e-05 -7.920339596988829e-06)
(-1.000267812897818 1.514149039050218e-05 -9.660418015493297e-06)
(-1.000296409793019 1.85651425277101e-05 -1.205139869663268e-05)
(-1.000332215141227 2.269424293509226e-05 -1.535185650005148e-05)
(-1.000376893520062 2.770907325738711e-05 -1.993409652323128e-05)
(-1.000183529805832 4.741181253986997e-07 -4.387668375018507e-06)
(-1.000185626032553 2.148212397426493e-06 -4.518965651655738e-06)
(-1.000189893393689 3.630282390532073e-06 -4.791014465786985e-06)
(-1.000196485306709 5.190729318496642e-06 -5.223720744543181e-06)
(-1.000205640936531 6.86789611860363e-06 -5.849553762520874e-06)
(-1.000217696061857 8.707098285085103e-06 -6.717013840100459e-06)
(-1.000233097340715 1.076236005348446e-05 -7.895834622100529e-06)
(-1.000252419149007 1.309745335104083e-05 -9.484428887303265e-06)
(-1.000276380853235 1.578531566975861e-05 -1.162013937669935e-05)
(-1.000305859817241 1.890433445192449e-05 -1.449265482650143e-05)
(-1.000341891172985 2.252998105940763e-05 -1.836036668572855e-05)
(-1.000178782223623 4.297366775763217e-07 -4.456265187185892e-06)
(-1.000180624951449 1.943978172103183e-06 -4.580604463520607e-06)
(-1.00018436684835 3.274398664210314e-06 -4.837242723870593e-06)
(-1.000190122682397 4.658394553977404e-06 -5.242801309366739e-06)
(-1.000198069194543 6.121117199692177e-06 -5.82402116244641e-06)
(-1.000208450185973 7.691080234309446e-06 -6.620080812323592e-06)
(-1.000221582371223 9.400410761806228e-06 -7.685911220473173e-06)
(-1.000237860676688 1.128417475181055e-05 -9.096634354748491e-06)
(-1.000257760540461 1.337805137639769e-05 -1.095313803724009e-05)
(-1.000281832942493 1.571329322216917e-05 -1.33884912210746e-05)
(-1.000310685211896 1.830777655859038e-05 -1.657438152883629e-05)
(-1.000174100891011 3.882648155485358e-07 -4.423810127993857e-06)
(-1.000175708038015 1.753628520145906e-06 -4.53872703016046e-06)
(-1.000178963474535 2.944435657334293e-06 -4.7750269239563e-06)
(-1.000183950217763 4.168708792828828e-06 -5.146099252561982e-06)
(-1.000385640396954 2.673719881024427e-05 -2.356976888051204e-05)
(-1.000344937295493 2.116220612331668e-05 -2.072654050276495e-05)
(-1.000190794444031 5.441428061969739e-06 -5.673185510604059e-06)
(-1.000199666912174 6.778712153557388e-06 -6.386798771363232e-06)
(-1.000713589054592 0.0001249817616829415 -4.189898995691333e-05)
(-1.000610574374512 6.532659238491605e-05 -3.171838128470963e-05)
(-1.000547399311233 5.373011089326505e-05 -3.083982388369755e-05)
(-1.000485028896657 4.276611437232791e-05 -2.862914171169637e-05)
(-1.000432457948665 3.38341210782218e-05 -2.633390867816049e-05)
(-1.000807181232194 0.0001509827241710386 -5.599888177319936e-05)
(-1.000815590618521 0.000144021870926054 -7.453894145502254e-05)
(-1.00071428282174 0.0001118398070442371 -6.880266396689692e-05)
(-1.000581973327881 5.460897903445044e-05 -4.142718390995368e-05)
(-1.000500390648776 4.11269730277523e-05 -3.528031662614636e-05)
(-1.000210783769988 8.19735817025867e-06 -7.328635798938336e-06)
(-1.000437674916553 3.147548160905365e-05 -3.049629064047007e-05)
(-1.000384636895027 2.417156004488904e-05 -2.604289463312641e-05)
(-1.000429809290396 2.728206168055838e-05 -3.277391727531645e-05)
(-1.000224405458295 9.713539862246519e-06 -8.553919594369221e-06)
(-1.000240831629982 1.13401782010637e-05 -1.013396203132646e-05)
(-1.00026038885793 1.308233226419985e-05 -1.215845473090585e-05)
(-1.0002834063978 1.492985858908549e-05 -1.473656387145131e-05)
(-1.000480890981961 3.078955935721978e-05 -4.148698259982012e-05)
(-1.000510193588368 -7.490275785038067e-05 -9.107180048621853e-05)
(-0.9995341602992713 0.001050862305761495 -0.00110316608516198)
(-1.000714664410685 5.5749659663493e-05 -0.0001247306915381047)
(-1.000690332151884 3.898660445116154e-05 -0.000108255866360097)
(-1.000498639147264 3.686776477265569e-05 -3.960446700699581e-05)
(-1.000578409770349 4.5045766974492e-05 -5.175677928063237e-05)
(-1.000709588790399 7.159087020578957e-05 -0.0001128438860463649)
(-1.000757439926083 8.000641306998469e-05 -0.0001277499276767352)
(-1.000972457283573 0.0001166172028085053 -0.0001955395638570222)
(-1.00085657835627 7.753651319448112e-05 -0.000191953610142709)
(-1.001006863886492 0.0002470131961230546 -9.641587155287633e-05)
(-1.001334763688232 0.0003698287498114111 -0.0001610238510974574)
(-1.001822587871629 0.0005661101636668518 -0.0002844217262427823)
(-1.002568236180054 0.0008913933929976183 -0.0005295682328689798)
(-1.003725161480478 0.001428362371836011 -0.001038355008221837)
(-1.005506526038615 0.002259143142435025 -0.002117597463510681)
(-1.00089769569472 0.0001826197610026961 -0.0001171757032585334)
(-1.001149562594709 0.0002804251132302819 -0.0001605392049263562)
(-1.001509877431674 0.000401334520763884 -0.0002652123865735917)
(-1.002021531295776 0.0005774977159120803 -0.000450449078030927)
(-1.002742861456494 0.0008206026691712029 -0.0007805435586375221)
(-1.004633469539792 0.0013028366774093 -0.001999120115474057)
(-1.000790071346117 0.0001315315270472998 -8.496921891470398e-05)
(-1.000981167619166 0.0001862761785046435 -0.0001444326950215257)
(-1.001230379745043 0.0002754776851832111 -0.000225715401139137)
(-1.001571097074137 0.0003657684369975818 -0.0003524538334306634)
(-1.002012858211365 0.0004706347351354226 -0.0005511056699045564)
(-1.003018005531713 0.0006088647347626466 -0.001134915958234696)
(-1.000748951456537 0.0001083323002309524 -8.908274418140512e-05)
(-1.000828361897404 0.0001283693663470703 -0.0001125197101206742)
(-1.000995652292797 0.0001849076653075257 -0.0001808660215001064)
(-1.001222409000519 0.0002317553504616057 -0.0002654636221284744)
(-1.00149421573046 0.000275335622384424 -0.0003822981759258983)
(-1.002049493148291 0.0003072387070623958 -0.0006735731478919753)
(-1.000591690368696 5.089153239769995e-05 -4.894611756997029e-05)
(-1.000631999457743 7.933915361119877e-05 -8.507616417635446e-05)
(-1.000732746597593 8.233831400762994e-05 -0.0001073745679538514)
(-1.000856104685617 0.0001042296313020213 -0.000146383228655181)
(-1.000938614133706 0.0001239241535203435 -0.0001998118124128141)
(-1.001146390598141 0.0001086347637074405 -0.0003008645186988265)
(-1.000611620191494 1.65825642380895e-05 -7.131638728153172e-05)
(-1.0004879180388 9.21967733077314e-06 -5.028070821139414e-05)
(-1.00072770966891 2.139901291295724e-05 -0.0001272774763058319)
(-1.000921529412135 5.215686310504979e-05 -0.0002183008868145836)
(-1.006832483981311 0.001653875527311925 -0.003813996884452135)
(-1.005956040842175 0.001345246815741238 -0.003129863405694956)
(-1.003630835440825 0.0005658039155863484 -0.001571939886090592)
(-1.002355590747 0.0002653947418301309 -0.0008616550328970437)
(-1.001252765698033 8.664781458453673e-05 -0.0003532038785323131)
(-1.000208205397112 7.44308732203477e-07 -1.1240996076151e-06)
(-1.00021186558058 3.402464182483715e-06 -1.170814875550685e-06)
(-1.000219416392941 5.854636660557147e-06 -1.269665669664098e-06)
(-1.000231345917488 8.608229943529703e-06 -1.432559950613141e-06)
(-1.000248459363462 1.184016899728745e-05 -1.680346782240897e-06)
(-1.000271982473151 1.579720193627132e-05 -2.047435504729331e-06)
(-1.000303730423239 2.083984422325542e-05 -2.59019662740171e-06)
(-1.000346380797857 2.751524033912921e-05 -3.402419457142391e-06)
(-1.00040392060465 3.668425244303404e-05 -4.644419161517781e-06)
(-1.000482397885364 4.975069394669271e-05 -6.598662167586434e-06)
(-1.000598213642677 6.847756655533916e-05 -1.004462706040046e-05)
(-1.000206469174981 7.230415282333722e-07 -1.833386045916376e-06)
(-1.0002100053219 3.303089452746965e-06 -1.907954909282142e-06)
(-1.000217293245158 5.676056256717594e-06 -2.065492214270637e-06)
(-1.000228788566766 8.328299141074918e-06 -2.324383591164489e-06)
(-1.000245239917853 1.142161930076094e-05 -2.716614943366516e-06)
(-1.000267780255365 1.517901610170744e-05 -3.29447847578819e-06)
(-1.000298073999643 1.992158302575878e-05 -4.142535255761237e-06)
(-1.000338550438715 2.612826544165498e-05 -5.399197718798996e-06)
(-1.000392777596888 3.4539757409441e-05 -7.296904797341835e-06)
(-1.000466083697819 4.635514460495072e-05 -1.023852772235205e-05)
(-1.000573136946735 6.315595546902328e-05 -1.529777465648709e-05)
(-1.000203950753399 6.928207074985414e-07 -2.485081572086564e-06)
(-1.000207310861146 3.162068508116791e-06 -2.583016637747212e-06)
(-1.000214226407458 5.423335525750428e-06 -2.789451545886091e-06)
(-1.000225108740935 7.933852831251821e-06 -3.127397797242732e-06)
(-1.000240629927838 1.083542786678433e-05 -3.636551312448056e-06)
(-1.000708678806557 0.0001210718246513622 -1.375709009869071e-05)
(-1.000658309257081 0.0001081490030995827 -3.405506989161922e-05)
(-1.001095312302694 0.0003004287803065594 -4.11687974958313e-05)
(-1.000843066237679 0.0001669054020285605 -5.106160502226238e-05)
(-1.001180646778415 0.0003353144778318373 -4.669410051223599e-05)
(-1.00163440559292 0.0005371715714017151 -8.443731096041272e-05)
(-1.002373120895366 0.000917235259545648 -0.0001666166843925973)
(-1.00365034013355 0.001695935219505259 -0.0003647487680740848)
(-1.006020918749709 0.00347045976844131 -0.0009133058551242643)
(-1.016859238099849 0.009773219203047273 -0.00667968688790509)
(-1.001034511346645 0.0002600805747371001 -9.319783192656282e-05)
(-1.001380071926428 0.0003932637286267088 -0.0001576520913532711)
(-1.00190219912484 0.000612075029030432 -0.0002831354853587199)
(-1.002714981295995 0.0009862128979228537 -0.0005396434591132479)
(-1.004007943973008 0.00163267064554042 -0.001093881943335752)
(-1.006067389719826 0.002704762374091123 -0.002340149184029292)
(-1.033939116366643 0.01605941119338979 -0.008913255366472765)
(-1.027171173174896 0.01069694507578494 -0.007967588728139362)
(-1.011507252909177 0.004895496859610496 -0.008830034842057003)
(-1.053308803231111 0.01791374657815553 -0.03326523873298725)
(-1.036230614154211 0.001543520544715185 -0.002035556380791634)
(-1.080306706301653 0.03995422213142562 -0.06395738556071201)
(-1.063283445900205 0.001968080878526099 -0.002131087304008242)
(-1.050665206514981 0.02581614869729518 -0.02797630893046935)
(-1.093323094336888 0.002334511819464571 -0.004022115985407742)
(-1.05761807963519 0.04773866802937408 -0.07505446920888889)
(-1.047713480192007 0.02870722742176172 -0.03120101448772518)
(-1.000665722267443 3.437252098257744e-06 -0.0001300632244660076)
(-1.000503653550122 6.207170909541798e-06 -5.173053518401057e-05)
(-1.000416043670435 4.371913084120039e-06 -3.785422992504079e-05)
(-1.000354049069812 3.234903804357558e-06 -2.851957992019495e-05)
(-1.000308227930869 2.46021455378824e-06 -2.154359402993375e-05)
(-1.000274312275077 1.93433727304973e-06 -1.626343047847965e-05)
(-1.0002493235877 1.577609612134736e-06 -1.214340962891976e-05)
(-1.000231230698238 1.337303822636723e-06 -8.802317192440182e-06)
(-1.000218665710339 1.179849096370871e-06 -5.973835136517555e-06)
(-1.000210733986042 1.084582027137554e-06 -3.467017147511637e-06)
(-1.000206895328277 1.039647965495014e-06 -7.579314983139625e-07)
(-1.000748800081364 1.895387492520689e-05 -0.0001413773175316904)
(-1.000930373639957 4.083443081042905e-05 -0.0002243274841748211)
(-1.005889521054435 0.002722791630290562 -0.005067755961977871)
(-1.00628547254316 0.001342423213983403 -0.003295682561282316)
(-1.003770490918673 0.000531621697862002 -0.001679232030662615)
(-1.002422598719465 0.0002456347819429847 -0.0009052476506188176)
(-1.001275022980059 7.879515501578613e-05 -0.0003646152343122574)
(-1.000890605354558 9.246609091957847e-06 -4.376289467292141e-05)
(-1.001064678345463 9.492834617042137e-05 -0.000270619811438012)
(-1.001105080016974 1.502128795431044e-05 -4.207465165099519e-05)
(-1.000987285190001 9.922252412176646e-05 -0.0002310020764386443)
(-1.001018883190799 1.655637662903176e-05 -3.81974350378589e-05)
(-1.000855441923789 6.728161405375161e-05 -0.0001663368935970707)
(-1.000872359234436 2.424203255007097e-05 -5.774817623559899e-05)
(-1.001045500507385 3.927523075319973e-05 -1.556632234275139e-05)
(-1.001240712969091 0.0003340869853071158 -0.0001408194030165175)
(-1.001295052041584 5.123857470880549e-05 -2.171103642614652e-05)
(-1.000932805011444 0.000203635865126298 -9.435830470405616e-05)
(-1.000954913702534 4.347133317070793e-05 -1.551026224353113e-05)
(-1.001118293868648 0.0002748066651095188 -0.0001435367864499598)
(-1.001163162783368 4.25739534755701e-05 -2.235409755286843e-05)
(-1.001396816716985 5.653167881190593e-05 -2.471516420937036e-05)
(-1.001681070258232 0.0005075074670240338 -0.0002455155922134766)
(-1.001775865696237 7.701208650773987e-05 -3.732377495969678e-05)
(-1.001195746326168 0.0003015887815885985 -0.0001625062291353882)
(-1.001246303799218 4.642009432526491e-05 -2.514103956008518e-05)
(-1.001474629213489 0.0003992212963513281 -0.0002388866419179222)