/*--------------------------------*- C++ -*----------------------------------*\
  =========                 |
  \\      /  F ield         | OpenFOAM: The Open Source CFD Toolbox
   \\    /   O peration     | Website:  https://openfoam.org
    \\  /    A nd           | Version:  7
     \\/     M anipulation  |
\*---------------------------------------------------------------------------*/
FoamFile
{
    version     2.0;
    format      ascii;
    class       volScalarField;
    location    "0";
    object      mag(grad(Phi));
}
// * * * * * * * * * * * * * * * * * * * * * * * * * * * * * * * * * * * * * //

dimensions      [0 1 -1 0 0 0 0];

internalField   nonuniform List<scalar> 
12679
(
1.000169587441993
1.000170980745282
1.000173796228815
1.00017809166921
1.000183953610589
1.000191496693005
1.000200861782588
1.000212211874818
1.000225724250799
1.000241576756588
1.000259925410994
1.000165329111087
1.000166532409905
1.000168958338758
1.000172645194561
1.000177649362555
1.000184043620553
1.000191914126741
1.000201355362973
1.000212462045703
1.000225316756185
1.000239971871108
1.000161398823804
1.000162436711766
1.000164524590665
1.000167686128643
1.000171955375903
1.000177374718117
1.000183991626538
1.000191853741448
1.000201001711178
1.000211459145923
1.00022321909996
1.000157855979456
1.000158752822529
1.000160553278173
1.000163270308149
1.000166921840538
1.00017152875439
1.000177111866073
1.000183687651859
1.000191262412177
1.000199824607981
1.00020933522823
1.000154747781284
1.000155527083597
1.000157088621031
1.000159437715163
1.000162580945623
1.000166524352035
1.000171270855412
1.000176816769661
1.000183147284418
1.000190230858578
1.000198012590925
1.000152110803161
1.000152794868241
1.000154163243692
1.000156215941151
1.000158951759119
1.000162366764615
1.000166452187663
1.000171191684842
1.000176557955743
1.000182508755701
1.000188982453792
1.000149972601337
1.000150582430187
1.000151800508933
1.000153623271923
1.00015604434412
1.000159053292758
1.000162633946071
1.000166762285885
1.000171403952331
1.000176511451033
1.000182021230852
1.000148353221369
1.000148908590427
1.000150016566546
1.000151671280232
1.000153863065077
1.000156577430993
1.000159793716599
1.000163483455612
1.000167608521955
1.000172119160721
1.000176952068365
1.000147266495538
1.000147786164061
1.000148822036563
1.000150366883261
1.000152409114345
1.000154931907287
1.000157912085454
1.000161318796975
1.000165112070032
1.000169241355624
1.000173644210526
1.000146721061691
1.000147223066785
1.00014822328655
1.000149713862679
1.000151682322909
1.000154110786753
1.000156974957709
1.000160242956539
1.000163874075908
1.000167817567376
1.00017201160625
1.000182028751051
1.000178245316457
1.000176382612954
1.000280870008871
1.00025642447119
1.000236226792112
1.000219716339094
1.000206406862147
1.000195893441008
1.000187850903687
1.000310173788045
1.000340486416139
1.000374115662943
1.000304110199405
1.00032935000158
1.000274356623907
1.000293479421574
1.000250182341326
1.000264829505674
1.00023069946856
1.000242066668287
1.000215178846557
1.000224146307957
1.000203037471472
1.000210262323793
1.000193821420936
1.000199804036522
1.000187189136691
1.000192321525912
1.000182897185381
1.000187499146272
1.000180789353228
1.000185136557825
1.000411075908575
1.000450461004245
1.000461868927193
1.000534952699087
1.000576374972725
1.000356489383705
1.000384836594143
1.000413370860517
1.0004411520037
1.000466971517338
1.000313667399808
1.000334392372264
1.000354952375046
1.00037453136222
1.000392146389462
1.000406420110439
1.000280047293241
1.000295428651423
1.000310460343767
1.000324540681338
1.000336987493007
1.00034704205605
1.000253711896684
1.000265320952885
1.000276514936304
1.000286862804788
1.00029589956473
1.000303155659318
1.000233220315683
1.000242157189176
1.000250674582948
1.000258462047803
1.000265197223295
1.000270569205
1.000217494635225
1.000224542994074
1.000231193304007
1.000237217383749
1.000242385313429
1.000246481491165
1.000205737984132
1.000211469379
1.000216831260455
1.000221650445914
1.000225756670357
1.000228993597847
1.000197374424109
1.000202219614414
1.000206721430751
1.000210742285651
1.000214149591198
1.000216823642744
1.00019200572904
1.00019630467008
1.000200279350184
1.00020381345864
1.000206796563837
1.000209130210863
1.000189381709823
1.000193420180478
1.000197144353197
1.000200447866325
1.000203230550583
1.000205403716938
1.000261798934519
1.000290081640555
1.000327587163512
1.00037735138174
1.00044376109407
1.000538764017712
1.00020074572114
1.00020388835343
1.000210345041212
1.00022047527335
1.000234862265283
1.000254372846416
1.000280250605183
1.000314257048818
1.000358885157099
1.000417690379769
1.000495852479209
1.000196970177118
1.000199865899802
1.000205803191321
1.000215086386785
1.000228205124235
1.000245878624265
1.000269122986979
1.000299350211194
1.000338512180612
1.000389308213888
1.000455466813396
1.000192753089552
1.000195384727844
1.00020076836837
1.000209153754307
1.000220938876055
1.000236700433591
1.000257238623409
1.000283640014116
1.00031736291857
1.000360348043663
1.000415146754148
1.000188228710454
1.00019059054908
1.000195410618693
1.000202887676756
1.000213335131314
1.000227200287341
1.000245091378406
1.000267813059069
1.000296410037897
1.000332215516456
1.000376894102422
1.000183529815569
1.000185626045069
1.000189893411751
1.000196485333819
1.000205640977216
1.00021769612231
1.00023309742978
1.000252419279723
1.000276381045284
1.00030586010086
1.000341891595192
1.000178782233643
1.000180624963827
1.000184366865407
1.000190122706986
1.000198069230229
1.000208450237451
1.000221582444927
1.000237860781704
1.000257760689895
1.000281833155512
1.000310685516744
1.00017410090087
1.000175708049851
1.000178963490267
1.000183950239689
1.000385641031916
1.000344937734056
1.000190794474922
1.000199666955537
1.00071359773638
1.000610577009713
1.000547401229193
1.000485030220299
1.000432458867379
1.000807194187566
1.000815603756982
1.000714291436561
1.00058197567569
1.000500392116106
1.000210783830428
1.000437675876498
1.000384637526033
1.000429810199226
1.000224405542038
1.000240831745603
1.000260389017377
1.000283406617771
1.000480892315903
1.000510200537071
0.9995353214830212
1.000714673736904
1.000690338766961
1.000498640610407
1.000578412122931
1.000709597713565
1.00075745127802
1.000972483176039
1.000856599766979
1.001006899006899
1.001334844930782
1.001822788194721
1.002568772315335
1.003726714892654
1.005511293747117
1.000897719213668
1.001149614740304
1.001509992960736
1.002021798958644
1.002743501020548
1.004636303337782
1.000790083596593
1.000981195371745
1.001230443084807
1.001571225876895
1.002013120291058
1.003018832411094
1.000748961284988
1.000828376455035
1.000995685711205
1.001222471015448
1.001494326545672
1.002049766635946
1.000591692860057
1.000632006219797
1.000732755745338
1.000856120817739
1.000938641748764
1.001146441700042
1.00061162287036
1.000487919344738
1.00072771799159
1.000921554576753
1.006841066244554
1.005961809335124
1.003632225955666
1.002355996233639
1.001252831745701
1.000208205398021
1.000211865587053
1.000219416410882
1.000231345955556
1.000248459434951
1.000271982599988
1.000303730643676
1.000346381182057
1.000403921288026
1.000482399144094
1.000598216036281
1.000206469176922
1.000210005329174
1.000217293263396
1.000228788604139
1.000245239986753
1.000267780375961
1.000298074206597
1.000338550794514
1.000392778219763
1.000466084824108
1.000573139056874
1.000203950756726
1.000207310869479
1.000214226426051
1.00022510877729
1.000240629993137
1.000708686225122
1.00065831568083
1.001095358228551
1.000843081457198
1.001180704018901
1.001634553193149
1.002373554407316
1.003651839279001
1.006027319301319
1.016928141089388
1.001034549471075
1.001380161557997
1.001902426093846
1.002715611500275
1.004009867357911
1.00607374714549
1.03410224212219
1.027257770039043
1.011557639530582
1.053986201706922
1.036233763036056
1.082935578284421
1.063287402916473
1.051354613618118
1.093332984946865
1.061352041569938
1.048571001309571
1.00066573072594
1.000503654906727
1.000416044396161
1.000354049481582
1.000308228165886
1.00027431240916
1.000249323662657
1.000231230737864
1.000218665728874
1.000210733992638
1.000206895329105
1.000748810247149
1.00093039961093
1.005905971903871
1.006291764785463
1.003772036311511
1.002423037561109
1.001275092467931
1.000890606354014
1.001064719424962
1.00110508101383
1.000987316762364
1.001018884056496
1.000855458007419
1.000872361193991
1.00104550139888
1.001240778609756
1.001295053587961
1.0009328301735
1.000954914766681
1.001118341875717
1.001163163938149
1.001396818617665
1.001681228912379
1.001775869351708
1.001195804938116
1.001246305190932
1.001474737276366
1.001548882308015
1.001932512717772
1.002350806178538
1.002525163115957
1.001586061305435
1.001670800009483
1.001989223307134
1.002117308739627
1.00277355821135
1.003387655519063
1.003725703582027
1.002150559560081
1.002298111070382
1.002733454165819
1.002961043447994
1.004128512760666
1.004993688763427
1.005676678965225
1.002965133707157
1.003228641619805
1.003788279211674
1.0041975044009
1.00632798504228
1.007526328024125
1.009401344667175
1.005193049045144
1.005911714927946
1.004107477921142
1.00458053995709
1.000923765813031
1.000855809627858
1.000874549243263
1.001077177634232
1.001119180485613
1.000965611427519
1.000988978400618
1.001196535359214
1.001407793973491
1.001475766441005
1.001019570932991
1.001051470650813
1.001218125820074
1.001269628137071
1.001587317360819
1.001876570076551
1.001991578906037
1.001296191795634
1.001354210267746
1.001568957260491
1.00165151436111
1.002153475026898
1.002540097899903
1.002738979920327
1.001673990789032
1.001766913530016
1.002036324366183
1.002168874815532
1.002971958837117
1.003455383453693
1.003800939826448
1.002173648897181
1.00232273836577
1.002635455436599
1.002846017556186
1.005219667413215
1.00334765198564
1.003669641038735
1.003727250933823
1.004122901103169
1.00280488134898
1.003040178657912
1.001004388465958
1.001159292581702
1.001206034682131
1.00083985336028
1.000887782637906
1.000995680695188
1.001033610706665
1.001283036043216
1.001477096482818
1.001550899827711
1.001050134778059
1.001090885186108
1.001233022491069
1.001285861323893
1.001653860846297
1.00189259543827
1.002008473353116
1.001300804458493
1.001358978444272
1.001525497371635
1.001603369134513
1.002142655925879
1.002413729886123
1.002593115888183
1.001607384969702
1.001693045504586
1.001871349837118
1.001984119612243
1.003285743542687
1.00224921202284
1.002405846469736
1.002559003759698
1.002758100467734
1.00196420525324
1.002087215738403
1.00103401024299
1.001161596092348
1.00120902818986
1.000828426942842
1.000886209027972
1.000971481630288
1.001009293178621
1.001274281262945
1.00142218023565
1.001490543472095
1.001018297695367
1.001055458520901
1.00115989630541
1.001206339936167
1.001569186848951
1.001724831576809
1.001821984116157
1.00120963387589
1.001259947478003
1.001364857753817
1.001428015331334
1.002182142286531
1.001575176783296
1.001657185179269
1.001805207215747
1.001910667220498
1.001417759671455
1.001485498972029
1.000873748385423
1.000902327152927
1.000918432868027
1.000956185261031
1.000992786658252
1.001086327659265
1.001127032641759
1.000955485295411
1.00102555181014
1.001060305058677
1.00113045284775
1.001174368501224
1.001266946737631
1.001321898258208
1.001192405373281
1.001449881128335
1.001520371212802
1.0010561532943
1.001094372066946
1.001313166734303
1.001371955954229
1.000959754804304
1.001157578528129
1.001204710913019
1.000877941510268
1.000909124671807
1.001089892312755
1.001131984417266
1.01073728105656
1.007842343280874
1.014185674780131
1.007967963787512
1.009928870280549
1.005590295545617
1.006409195579922
1.006887005296039
1.004085933399868
1.004542647145583
1.004963438013049
1.005621655257979
1.003535073588581
1.003889516698964
1.0040014867611
1.002611079547965
1.00281490435522
1.003175785888163
1.003467649305808
1.00234366029402
1.002512141525219
1.002525386353087
1.001765433412278
1.001866038205059
1.002130135534078
1.002271879010409
1.001625811687253
1.001712624592822
1.001306915694104
1.001613498860248
1.001698958875422
1.001175173188101
1.001223255548235
1.001493598040833
1.001567978058919
1.001138764518717
1.001052031504052
1.001090791374318
1.000886393939485
1.000917507921538
0.999905062430513
1.000872307812105
1.000860584700206
1.000967608871507
1.001003374706585
1.001033361578972
1.001071107720237
1.000848592690244
1.000893632949735
1.001230229041213
1.001130369183802
1.001175403890273
1.001500704295879
1.001577892418335
1.001422829620865
1.0014926827794
1.001724939300839
1.002151450600565
1.002301095655615
1.001544045460108
1.001625313435869
1.002005725788587
1.002137095239787
1.002552616600644
1.003259138861637
1.003578430100651
1.00220114548549
1.002356828109171
1.002964418622353
1.003232210988564
1.004044833750005
1.005278589772103
1.006050629126015
1.003295398687235
1.003620121941633
1.004623638034226
1.005226338586379
1.007012596804651
1.005213754800697
1.005965121140273
1.007749931792831
1.009377863405106
1.020043260590994
1.020402570336098
1.02171885272404
1.008048990321102
1.010137621349807
1.001074512298957
1.001280464380876
1.001337978838006
1.001108977290357
1.001152818095485
1.001390527613326
1.00145749036492
1.001446115170542
1.00175008364313
1.001852058264313
1.001506684624955
1.001584338541492
1.001946523490158
1.00207078383994
1.002021210758913
1.002476258860438
1.002668197173704
1.002131542722743
1.002278218564103
1.002848157319874
1.003096813480933
1.002942543483407
1.003627060607388
1.004010672107484
1.003156109044904
1.003455836514975
1.004376596393249
1.00492057135536
1.004470147675722
1.005466744537476
1.006275963650107
1.004911570418123
1.005583432589183
1.007110149067085
1.008477261333549
1.007053653407389
1.008063530589334
1.010086254227998
1.014069531737731
1.015617284571936
1.00769987120875
1.009645325324718
1.02945091312674
1.036879894752237
1.030413161837166
1.026391596649566
1.023993776787312
1.019622678855824
1.021287962753799
1.023286247549768
1.025555932833982
1.033698192406262
1.024571609859882
1.022438262403568
1.015569347090546
1.021536580334793
1.023095478483365
1.008467729439974
1.010681771159802
1.017455369722889
1.021367901450376
1.097781236178418
1.083334388637436
1.079136812609351
1.103968502376789
1.04332187744304
1.085352520397671
1.050024541641293
1.039382764521992
1.042269217262772
1.059048946221803
1.048006377199852
1.044559976446707
1.041433933806173
1.061350791858604
1.059590041686298
1.050648510531373
1.032982327007658
1.03036429965923
1.025293090125949
1.027919649456208
1.03756802854769
1.052854601325627
1.044839454262674
1.093839974503728
1.065190742047785
1.076439456675724
1.077788526852702
1.127824381693035
1.137889134422674
1.104822038139287
1.111858216272468
1.104476225072905
1.121512956273621
1.100357735751068
1.082323277503787
1.071540307223792
1.084901128377687
1.110627880356865
1.092517687888546
1.06555345075407
1.076787218101973
1.073108003776349
1.090332049875957
1.077801795717259
1.060424749013698
1.075300660423564
1.074026459426998
1.071659191520951
1.095756622685142
1.086874831506827
1.057927184721723
1.056952683702049
1.058755948751997
1.071620328849086
1.072748720591137
1.069338697062205
1.088179844258289
1.115946189089553
1.124394596309961
1.09639507226333
1.079643692182883
1.075652963076188
1.102498182001744
1.060684158210878
1.071470550441649
1.051536926641843
1.053467893290686
1.071202950310047
1.082252353329295
1.075287231848748
1.053325939465257
1.075918785023527
1.066261441147814
1.055122151120292
1.056223842829114
1.070613995750294
1.051179969738231
1.051329770570438
1.054201920682811
1.05334370108334
1.067163935456273
1.049432109129378
1.043896695965114
1.04558842784777
1.046270169872053
1.000975031022552
1.001176910459517
1.001225435446298
1.0111444017946
1.008094394303699
1.014841679960406
1.007325735864794
1.004256323235447
1.004746531750148
1.004166331089089
1.002691003831664
1.002905887424229
1.002600995549957
1.001806158724209
1.001910930640903
1.001330897365031
1.001648300054891
1.001737080597045
1.012015914651392
1.016334044015656
1.029514883749427
1.037846328474026
1.055915078769169
1.042609427899233
1.050455546605433
1.13582340561729
1.146977772372665
1.110022737804649
1.128849542496723
1.08676273222178
1.074557839811851
1.088905864805779
1.11686722178126
1.097994662622465
1.092437428618199
1.122695336665821
1.131975283340648
1.031402442077302
1.027333288207763
1.028194087634488
1.022506562031025
1.025402580447201
1.020079043001761
1.021880540588518
1.021112072792727
1.050866370514425
1.03930687505542
1.03835106360702
1.04324672794943
1.040234152154389
1.057332217627671
1.045180118974818
1.030417838348409
1.028130081862397
1.023673935000798
1.040427845130384
1.068908372805337
1.052623118792213
1.040315406556719
1.000822727258074
1.000835423849497
1.000977673367733
1.000864840111247
1.000884817902307
1.000764629940935
1.000778723394674
1.00083140669257
1.000762402394739
1.000776041102035
1.000723634064846
1.00073716863924
1.000685954215372
1.000696269764741
1.000701713081688
1.000781870579508
1.000798048812007
1.000662798758246
1.000673372967553
1.000748086412056
1.000761016381362
1.00077151888159
1.000812357373787
1.000799280887798
1.000673249374773
1.000688472202154
1.000718479315987
1.000733085288756
1.000897339129
1.000880268472567
1.000988211270806
1.000764356231832
1.000748976201297
1.000811787785579
1.00082495838354
1.000921043489096
1.000876847722446
1.00092408522636
1.00081721741971
1.000843616327658
1.000940586757148
1.000905914079815
1.001066126196279
1.00102621993251
1.001077681829935
1.000977253981982
1.000996862048502
1.001098875611828
1.001045678949165
1.001418920270549
1.001365519496639
1.001438746318556
1.001288741446376
1.001317483874391
1.001473925485556
1.001386092928948
1.001945751259811
1.001876928944963
1.001980195224005
1.001743036147061
1.001792893073346
1.002043100382239
1.001888117616631
1.002750047481988
1.002669332856015
1.002812142233303
1.002424863198658
1.002515356121406
1.002930460307828
1.002644320325171
1.003989700042898
1.003922768458471
1.004104903502273
1.00345728461695
1.003628176521939
1.004338049050186
1.003788438508583
1.005865395730632
1.005906522656898
1.006081527400952
1.004996892864221
1.005326799646075
1.006551914458337
1.005477157837503
1.000933036084996
1.000913327638043
1.000835452028029
1.000951053712681
1.000863017462555
1.000968456669548
1.000912516445159
1.001201586135597
1.00117301671573
1.001228377068668
1.001104182583674
1.001254662089933
1.001126101285811
1.001177225091239
1.001577418803619
1.001548249654934
1.001621601568216
1.001436129724112
1.00166515646239
1.001470996255079
1.001537921629907
1.002106695901624
1.002086693470256
1.002180151560115
1.001899308222856
1.002254465249343
1.001957187284716
1.002040826965007
1.002840615273961
1.002855602649235
1.00296354622066
1.002538070854557
1.003092160486926
1.002635377913932
1.002729832571817
1.00409157292452
1.004919934771477
1.004148950466761
1.004319399399988
1.004569899473348
1.004380929032571
1.003884852173189
1.000777032709407
1.000735589989471
1.000748435597944
1.00099339492121
1.000951847936429
1.000819186256358
1.000803712708062
1.001006525384244
1.001005272355657
1.001033733407153
1.000945390670766
1.001053970890677
1.000961879916561
1.000988672386026
1.001263480016663
1.001256615269476
1.001306975012845
1.001167549913325
1.001336182953198
1.001191356013805
1.001237082861789
1.001605011198305
1.001612084759442
1.001671733116487
1.001474916069335
1.001717449763915
1.001511273276715
1.001564538352441
1.002038658690189
1.002076977340882
1.002140317400887
1.001865858773341
1.00221155923662
1.001921467907481
1.001976981297159
1.002697649493141
1.0031496747383
1.002729529659572
1.002862719350135
1.002981927198126
1.002838716914829
1.002597564314704
1.000846396595427
1.000857216884844
1.000982246631407
1.000752444617632
1.000766291782096
1.000827316101866
1.000846763577097
1.0010106237018
1.00101493442142
1.001048175407405
1.000943001501707
1.001068359401535
1.000962589693835
1.000991639502276
1.001231423471028
1.001248099689138
1.001286178177565
1.001149567078643
1.001314306705825
1.001172338820517
1.00120653048389
1.001491805961936
1.001531374941208
1.001569006993259
1.001390881131278
1.001609481758969
1.001423340421034
1.001456491990853
1.00185481357131
1.002115027336323
1.001872804736693
1.001968320463966
1.002029059546824
1.001928267621414
1.001802973398456
1.000637536006858
1.000678306599598
1.000690007497708
1.00068748864862
1.000699187640327
1.00074715164694
1.00076075238174
1.000745294573931
1.000761337686441
1.000804427298363
1.000782086121248
1.000833397778126
0.9998281010324949
1.000952076057613
1.001047273520944
1.000952971413874
1.000965609159708
1.00099363675644
1.000988070948229
1.001010314311555
1.001028115079907
1.001227948876822
1.001169285919796
1.001237022327096
1.001116746373751
1.001138583806957
1.0012631896273
1.00120304653132
1.000742842209684
1.000837947208128
1.000855937020298
1.000718253727101
1.000726603876452
1.000813324485768
1.000829611449227
1.000997094520816
1.000941952653441
1.000994785142525
1.000910106044284
1.000927583771632
1.001013779697163
1.000979214823265
1.008273808929482
1.00746247420752
1.007448975639804
1.006419491624801
1.006952947616595
1.009263385131808
1.007117139445779
1.005283577312735
1.006400956835439
1.00523429883113
1.005632006942193
1.006029094729084
1.005581558743977
1.004966476705703
1.003257131543736
1.00381273312855
1.003241606666705
1.003484656406785
1.003652668248947
1.003388944734437
1.003119297135095
1.002138668505057
1.002439361141069
1.002133052571438
1.002284183683623
1.002363151261584
1.002202836138279
1.002072338318962
1.001361288171859
1.001279626928994
1.001359373402912
1.001228609072536
1.00125446588582
1.00139038892948
1.001331414003515
1.000722035003387
1.000695101012111
1.000707907956494
1.000809688766625
1.000825937875695
1.000759435686887
1.000807551302982
1.000669647678975
1.000741388475455
1.000754783425354
1.000677866702574
1.000690452149107
1.000766740060097
1.000780842997314
1.001024676260219
1.001116755328339
1.001082608788153
1.001018357698694
1.001037329611564
1.001103260644075
1.001006173872595
1.00128648163341
1.00120519135401
1.001166247025221
1.001275654772513
1.001190003625178
1.001303914233572
1.001258985142176
1.001805979699215
1.001679208164396
1.001785657903485
1.001608463880668
1.001838145005706
1.001651803106144
1.001755140511484
1.002669488798022
1.002461567462625
1.002628034087232
1.002323301614984
1.002733853714704
1.002407916344892
1.002568066157454
1.004204474443348
1.00384357764776
1.004109802601507
1.003546241471371
1.00434719299639
1.00372790790106
1.003980630550349
1.007167658965564
1.006501652953639
1.006936098545753
1.005779523155142
1.007583261028156
1.006219971480097
1.00660393498286
1.014982676596474
1.012757778887113
1.014157365045687
1.014792358535413
1.011743466206353
1.012606054991393
1.012308504746908
1.001161467794258
1.00105439807326
1.001108654331462
1.001060716367266
1.001130773533918
1.001081399169333
1.001138323083501
1.00158134779714
1.001412799246589
1.001490682011089
1.001424231829454
1.00152825609282
1.001458834139138
1.001541367668975
1.002238333497918
1.001961002918642
1.002072581271332
1.001981090265016
1.002140984531213
1.002044203328751
1.002164267845188
1.003306040376026
1.002826944599057
1.002984506130202
1.002863792149986
1.003116433100441
1.002986505926267
1.003159590313849
1.005102589323526
1.004234112427919
1.004440443806366
1.00430426968072
1.004709831143603
1.004559716737417
1.004792490257824
1.008831200688492
1.006547633640642
1.006752996620562
1.006681008354718
1.00736697695432
1.007263022800587
1.007595194522991
1.038350998369209
1.036251643324123
1.040991763640382
1.02764849948592
1.025183530145383
1.030095842248584
1.026463554158552
1.031850164487453
1.028729442196314
1.02915824735448
1.015470805548588
1.014007699162867
1.013408408709501
1.011418236473229
1.012123863986635
1.018342023177385
1.012254753595671
1.1025180878584
1.095275202795944
1.094423456802931
1.103504332639152
1.048027286501522
1.066563083832392
1.061223071444631
1.078122202615028
1.067788158937541
1.054622347060519
1.06167827294234
1.049198333293534
1.043253115320889
1.053321055855502
1.046515665048983
1.036474042565074
1.035532512161666
1.033262866474295
1.040829173830913
1.032653700930875
1.039967922210989
1.037212823334865
1.156051953823497
1.171549019138361
1.169058218543185
1.158203781578647
1.113138360755715
1.118099777320122
1.106928605452973
1.125691318697487
1.089458802961415
1.085225006032589
1.09718816190785
1.085166734612551
1.092227333533841
1.079130477131814
1.08956630456813
1.071519747423856
1.067765247398895
1.062815910223678
1.067105396655374
1.066589289184209
1.067230868855016
1.072099760223453
1.053962991254777
1.054392060100053
1.060997218490746
1.054276775357087
1.057558827182531
1.057765095600669
1.057585651320365
1.096020284534601
1.092453795816641
1.102369084577966
1.088694074809732
1.087883621453814
1.101336058274509
1.096966700889703
1.087196198892821
1.100189587157334
1.083582359770341
1.095319156759996
1.064600907983797
1.056340858605609
1.054080968170314
1.059172761395871
1.054631063104663
1.062291835255087
1.052406310852035
1.051034434241132
1.047144769021219
1.045238381776108
1.051383085088387
1.047522303199256
1.050020175145078
1.053905528043276
1.000762175464925
1.000828537389251
1.000879678545699
1.001041930422056
1.000956010935736
1.001008942910845
1.000947839622914
1.001029091608859
1.000964172947793
1.001023537992486
1.010527110810975
1.007725806033391
1.007574523067404
1.007033223338959
1.009588410714575
1.008236675411082
1.00818423284809
1.006140279063004
1.006802501063481
1.00549234907394
1.006616090948906
1.005868844302839
1.007133964393483
1.005733509996602
1.003628673191969
1.003964675624483
1.003356999359047
1.003901583798021
1.003513514619179
1.004105705872544
1.003463512306739
1.002317190401816
1.002510588469835
1.002189566422115
1.002484332161499
1.002262623856799
1.002575777241053
1.002241098648035
1.001441351905269
1.001302737806981
1.001385104864391
1.001295167110021
1.00141717505112
1.001323553473384
1.001408331000406
1.000929982252362
1.0008873957497
1.000955848029578
1.000870485229061
1.000870444351519
1.000951305828997
1.000933068498536
1.000985561091291
1.000990849392366
1.001084857236
1.001038660374739
1.00105804236828
1.001008883221607
1.000968017699596
1.000996783105438
1.001026594816992
1.00109838097751
1.001077176929532
1.001070870849714
1.001020840380286
1.001002064447888
1.000959943910411
1.001012269837821
1.001004083728861
1.000928984219499
1.000939113525312
1.001030644500201
1.000941439734256
1.00096937514483
1.001048427832667
1.001013876127664
1.000949522539812
1.000944895049671
1.001042564716383
1.000975484254027
1.001079946708729
1.001039212898196
1.0011204136431
1.001015735800448
1.00100976949595
1.001113257629991
1.001086750421451
1.001142106939072
1.001155401981768
1.001267645438192
1.001200273323052
1.001225568083888
1.001179104986549
1.001119624899054
1.00115736886324
1.001203283647512
1.001285888912004
1.00125135358143
1.001242737901556
1.001195209899639
1.001164997920875
1.00103328293315
1.000946547134917
1.000941560278491
1.000984508377947
1.000966193245854
1.001001620855707
1.001014186950125
1.001046385874688
1.000984383458597
1.000950846743878
1.001018683153244
1.000977862072272
1.001013236264801
1.001052749264956
1.00110482446659
1.001159376544209
1.001047677346828
1.001140647056752
1.001183130116883
1.001067624579538
1.001083636353096
1.001119182688626
1.001207285881765
1.001087521822392
1.001155676741114
1.00119922700688
1.001080970343868
1.001126323974467
1.001441208179904
1.001386345909087
1.001509854126448
1.001346791603241
1.00133699004625
1.001497824273744
1.001452419371385
1.001531057975481
1.001553740370752
1.001727973790026
1.001611970195779
1.001655219725303
1.00159422709346
1.001493434148485
1.001556626296395
1.001635636665795
1.0017598065276
1.001699485912905
1.001684647749395
1.001621760884458
1.001569502292478
1.001363749937277
1.001242278771065
1.001220872709794
1.001280506224986
1.001269141516534
1.001308861905534
1.001333205210514
1.001384470410941
1.001296492510996
1.001237821072405
1.001337700807664
1.001287353258464
1.001328065864815
1.001394883008859
1.0014679462615
1.001542953686055
1.00137319691265
1.001511426579966
1.001582842838578
1.001405405162336
1.001433089872545
1.00149161386269
1.0016236217966
1.001438225475016
1.00153634253635
1.001609960219193
1.001427248303366
1.001503522316799
1.00198508447298
1.001913854735167
1.002107820771529
1.001844017623317
1.001826865593014
1.002086075654202
1.002004969862773
1.002115673052362
1.002155451746325
1.002436538333232
1.002227110439951
1.002304760949598
1.002228772368058
1.002048866116721
1.002161343710258
1.002304381801358
1.002495328346444
1.00238490153236
1.002357940391313
1.002278953744492
1.002184465097031
1.001849841623884
1.001663916409315
1.001627953558317
1.001708178149064
1.001709681228647
1.00175611363866
1.001797207772631
1.0018857249527
1.001756551185309
1.00165644237148
1.001805232981459
1.001740835462539
1.001788758829276
1.001903850139768
1.00200485268242
1.002106290044589
1.001842176298414
1.002052359077333
1.002176399254082
1.001897137324725
1.001944175657306
1.002046284794171
1.002248639432583
1.001953564375473
1.002095487414923
1.002224352279248
1.001934622863704
1.002067240741146
1.002822745349669
1.002738435555981
1.003053433798751
1.002608977583138
1.00257745051874
1.003011948818917
1.002859712125628
1.003011671038467
1.003083989317247
1.003552893325813
1.003157967109318
1.003303294050253
1.003223615969692
1.002887850118537
1.003096998729269
1.003369172402753
1.003667272154552
1.003454889640385
1.003403679385759
1.003320013986719
1.003140456172712
1.00257663284218
1.002285141497081
1.002223213504632
1.002327484908661
1.002366325775741
1.002411224623246
1.00248243234153
1.002641300965316
1.002450165958302
1.002272925446128
1.002497739343849