/*--------------------------------*- C++ -*----------------------------------*\
  =========                 |
  \\      /  F ield         | OpenFOAM: The Open Source CFD Toolbox
   \\    /   O peration     | Website:  https://openfoam.org
    \\  /    A nd           | Version:  7
     \\/     M anipulation  |
\*---------------------------------------------------------------------------*/
FoamFile
{
    version     2.0;
    format      ascii;
    class       volScalarField;
    location    "0";
    object      p;
}
// * * * * * * * * * * * * * * * * * * * * * * * * * * * * * * * * * * * * * //

dimensions      [0 2 -2 0 0 0 0];

internalField   nonuniform List<scalar> 
12679
(
-0.0002740815626423089
-0.0002763604975304774
-0.0002809724952115892
-0.0002880264143976247
-0.0002976867849124335
-0.0003101744909457741
-0.0003257661400006309
-0.0003447903806132954
-0.0003676184389672532
-0.0003946447338848377
-0.0004262515019336862
-0.0002683024265861759
-0.0002702913630413239
-0.0002743070920618464
-0.0002804250793880702
-0.0002887576613272877
-0.0002994522835035434
-0.0003126878302087438
-0.0003286676920046442
-0.0003476076275493205
-0.0003697157729173261
-0.0003951614341042823
-0.0002629469947740387
-0.0002646805900592065
-0.0002681729781170383
-0.0002734738590144483
-0.0002806558492006618
-0.0002898115940519884
-0.0003010489248375867
-0.0003144831265680556
-0.0003302250847614891
-0.0003483638162041277
-0.0003689417844391175
-0.0002581019300355316
-0.0002596154947519508
-0.0002626582159039305
-0.0002672603971207929
-0.0002734651537514474
-0.0002813252068086508
-0.0002908979359466024
-0.0003022381107507447
-0.0003153876035143814
-0.0003303613521526637
-0.0003471289817761052
-0.0002538376437125964
-0.0002551660882925122
-0.0002578314558904176
-0.0002618497966445656
-0.0002672428280505687
-0.0002740348537431692
-0.0002822482458122035
-0.0002918971709313992
-0.0003029792236685296
-0.000315464694507477
-0.000329283400631913
-0.0002502099179493239
-0.000251387106152078
-0.000253744828378064
-0.0002572889249732198
-0.000262025976415917
-0.0002679605474900038
-0.0002750912976430734
-0.0002834058147803054
-0.000292874059995554
-0.0003034404049136604
-0.0003150144300854177
-0.0002472617084517022
-0.0002483201548968206
-0.0002504368055333434
-0.000253610411441664
-0.0002578371645407022
-0.0002631083154184582
-0.000269406914664919
-0.0002767036469611907
-0.0002849517757058812
-0.0002940813096570229
-0.0003039926540800954
-0.0002450249144667804
-0.0002459957564108804
-0.0002479348060867499
-0.000250836116654472
-0.0002546890668034478
-0.0002594763107891932
-0.0002651710471002672
-0.0002717336413339222
-0.0002791076918166481
-0.0002872157095003006
-0.0002959547001283565
-0.0002435219550072348
-0.0002444351306868891
-0.0002462573940041107
-0.0002489799562848456
-0.0002525881091695076
-0.0002570594160099254
-0.0002623613509134407
-0.0002684484569047785
-0.0002752591468513799
-0.0002827123431437282
-0.0002907042435160901
-0.0002427670366780098
-0.0002436516090852914
-0.0002454159807875025
-0.0002480500281552591
-0.0002515371334952218
-0.0002558525021578502
-0.0002609609911107486
-0.0002668145359236365
-0.0002733493139720005
-0.0002804828477857208
-0.0002881113311058706
-0.0003051920834453344
-0.000299105604286754
-0.0002961075435199233
-0.0004627488549585567
-0.0004240288332933625
-0.0003919216967240793
-0.0003655919512591908
-0.000344309413869872
-0.0003274609587717793
-0.0003145502234506579
-0.0005089855569700705
-0.0005622113076620344
-0.0006221182668558151
-0.000503759619048302
-0.0005488741218376037
-0.0004558496421208906
-0.0004901778204783395
-0.0004168293249683957
-0.0004432454078138626
-0.000385307496246733
-0.0004059052846305517
-0.0003601442547788884
-0.0003764699439471263
-0.0003404261198864778
-0.0003536391052254961
-0.0003254389301716677
-0.0003364264076424919
-0.0003146429168774484
-0.000324103471132213
-0.0003076518538813394
-0.0003161580834973075
-0.0003042171403849056
-0.0003122645110368722
-0.0006887652256051915
-0.0007600583146341142
-0.0008322955645108702
-0.0009142427493890455
-0.0009873891772785534
-0.0005979916115297449
-0.000649873831272267
-0.0007028830746503821
-0.0007564585455230464
-0.0008052880361471079
-0.0005268469388594483
-0.0005649405488290614
-0.0006032369320406193
-0.0006403173921938019
-0.0006737466951597856
-0.0007014293512322024
-0.0004709858156203511
-0.0004993298107524186
-0.0005273366771566648
-0.0005538534417147831
-0.000577438967831595
-0.0005966785824132085
-0.0004272105911396863
-0.0004486551823024607
-0.0004695286239562803
-0.000488992211004178
-0.0005061061464440028
-0.000519945572508657
-0.0003931326553307703
-0.0004096849391141387
-0.0004255919408398798
-0.0004402486473608342
-0.0004530127031731387
-0.0004632644020008829
-0.0003669689779495753
-0.0003800605375680844
-0.0003925059946005154
-0.0004038608060118571
-0.0004136693309508778
-0.0004215011260919129
-0.0003474018856202489
-0.0003580776525982039
-0.0003681345883461144
-0.0003772353706594863
-0.0003850434288992639
-0.0003912467719587214
-0.0003334785143019415
-0.0003425270384125362
-0.0003509891054696493
-0.0003585967228872464
-0.0003650881530819624
-0.0003702246903012648
-0.0003245394198146304
-0.0003325840899852876
-0.0003400682856728358
-0.0003467654396800976
-0.0003524577305033309
-0.0003569489739294234
-0.0003201699277885564
-0.0003277356637240697
-0.0003347550157749474
-0.0003410207863809904
-0.0003463354794297725
-0.0003505224554229333
-0.000408362709494021
-0.0004519741236890599
-0.0005101633174145548
-0.0005880802535140444
-0.0006935339767287534
-0.0008385649568161033
-0.0003156147745566509
-0.0003204334030260759
-0.0003303431727804283
-0.0003459172486766447
-0.0003680905053232279
-0.0003982643825724767
-0.000438475689392704
-0.0004916648708543929
-0.0005621040241487187
-0.0006560724129187093
-0.0007828213332996968
-0.0003106537956390801
-0.0003151261486733462
-0.0003243063213526237
-0.0003386872484252318
-0.0003590665980110745
-0.0003866265814173246
-0.0004230593592829784
-0.0004707600704365671
-0.000533123350970013
-0.0006149965283987363
-0.0007233393759235739
-0.0003050889534057712
-0.0003091868996896283
-0.0003175806034065821
-0.0003306819355684528
-0.0003491512991285365
-0.0003739546145376864
-0.000406450182842785
-0.0004485171945424135
-0.0005027441140484047
-0.0005727039321569655
-0.0006633489588809557
-0.0002990910218642225
-0.0003028019369614891
-0.0003103853932975578
-0.0003221759010866408
-0.0003387043711963399
-0.00036073597125167
-0.0003893256324155166
-0.0004258959379285116
-0.0004723436496462625
-0.0005311820599607661
-0.0006057225575457358
-0.000292831723554358
-0.0002961568903249412
-0.0003029356824872372
-0.0003134322401121259
-0.0003280611773832571
-0.0003474105872549441
-0.0003722740551632575
-0.0004036923155639603
-0.0004430043297052335
-0.0004919051380413115
-0.0005525013529168859
-0.0002864767396464209
-0.0002894290682217934
-0.0002954329987870216
-0.0003046912507247695
-0.0003175183005012407
-0.0003343526692290832
-0.0003557726752669654
-0.0003825143671507388
-0.0004154888072316524
-0.0004557929133579222
-0.0005047022963126172
-0.0002801803128109471
-0.0002827817477479606
-0.0002880591156150994
-0.0002961634299631406
-0.0006273366945988489
-0.0005636224537391441
-0.0003073260408517322
-0.0003218637426613784
-0.001103023916868868
-0.0009554361348896373
-0.0008679460776484467
-0.0007815151700817927
-0.0007002681787301301
-0.001241685768209701
-0.001268774785338762
-0.001127561044803413
-0.0009342339732967801
-0.0008186378382788058
-0.0003401841546258462
-0.0007181577886975382
-0.0006330674592830983
-0.0007134294417751754
-0.0003627895177316969
-0.0003902756471052867
-0.0004233204744497622
-0.0004626528233755281
-0.0008053192665699606
-0.000904446105623546
-0.0008781592619277931
-0.001214265262127822
-0.001178470419525602
-0.0008267972064877301
-0.0009560828582856472
-0.001178519920997659
-0.001265160208646636
-0.00146168452286265
-0.001452197137442092
-0.001526151834626873
-0.002009774254679015
-0.002723051895821913
-0.003801262731133748
-0.005449615431659788
-0.007941436374333281
-0.001371599981547938
-0.001763189538769389
-0.002308607185398565
-0.0030833691426283
-0.004176302913017712
-0.007056037941808576
-0.001251750049215853
-0.00152647038944649
-0.001921564594097119
-0.002458402046905381
-0.003160267593626968
-0.004783299364954691
-0.001203613643293952
-0.001332542488457622
-0.001582550880631448
-0.001952806448204569
-0.002400699786972489
-0.003332565545367741
-0.0009646589739492498
-0.001041492211004963
-0.00120448574276372
-0.001408952189768534
-0.001546624099462059
-0.001915421128501774
-0.001054844666532316
-0.0008471855659315546
-0.001253618232382007
-0.001568336782647609
-0.0102463104123943
-0.009099036535751046
-0.005792674980557942
-0.003856651529717137
-0.002103896349625797
-0.0003253570979849649
-0.0003308901768968668
-0.0003423116047875036
-0.0003603750745083197
-0.0003863276944211702
-0.0004220768033231126
-0.0004704660048799841
-0.0005357266197522659
-0.0006242178217582835
-0.0007456396026630037
-0.0009150155944283551
-0.0003230967075068627
-0.0003284599474674587
-0.0003395212880398957
-0.0003569897712113082
-0.0003820349692804056
-0.0004164381468974669
-0.0004628417955276526
-0.0005251577695555748
-0.0006092373344479289
-0.0007239519904431059
-0.0008827400274785051
-0.0003198102813779434
-0.0003249309824879979
-0.0003354788823243135
-0.0003521010982907306
-0.0003758599593703371
-0.001081283221122467
-0.001015891639354999
-0.001628492059542054
-0.001283043097724468
-0.001750455697921227
-0.002391256547417652
-0.003407814718257187
-0.005095777978639209
-0.008021746029611683
-0.02164250607911029
-0.001562969694329102
-0.002068877574020727
-0.002825588354175078
-0.003986563692168012
-0.005796752086521786
-0.008604234753340273
-0.04185883434514019
-0.03567745801131623
-0.01545948120943092
-0.06718212981560662
-0.0513553383903215
-0.08964792309794178
-0.07997916102583313
-0.06115211902089274
-0.1141070922386095
-0.05947023809899033
-0.05646660239771762
-0.001123852842476942
-0.0008805122254680065
-0.0007213863606531221
-0.0006103163675718472
-0.0005297096800330031
-0.0004704727537941037
-0.0004269908249126202
-0.000395583359744174
-0.0003738079670796796
-0.0003600775823390045
-0.0003534369754232143
-0.001278141188516454
-0.001588812439872879
-0.009874861632526042
-0.009587648853108434
-0.006025014808375757
-0.003972426331393118
-0.002143509689280343
-0.001537533529203751
-0.00178368832707876
-0.001892440234142173
-0.001647121658203161
-0.001734283912741715
-0.001444805031778112
-0.001487365182285532
-0.001627753879146707
-0.001871501519437759
-0.002010943289257401
-0.001416190448650987
-0.001501985827478691
-0.001708838216535061
-0.001825386497940425
-0.00216806596979809
-0.002516803920981895
-0.002755358575680275
-0.001825371593454766
-0.001955673162606643
-0.002244170091538069
-0.002433030801455224
-0.002998623802092723
-0.00348767003738773
-0.003920959116603838
-0.002411128892508448
-0.002626330109867405
-0.003014997859111642
-0.003337644809400524
-0.004308340799187029
-0.004969811407798451
-0.005797462160837236
-0.003256330275295194
-0.003627040675180696
-0.004126998414272351
-0.004694418000817278
-0.006429516166749623
-0.007224442782766663
-0.008871986753516537
-0.004472649982515967
-0.005127996470303384
-0.005699915445536166
-0.006710813715608319
-0.009906773588809056
-0.01055457360127146
-0.01474134025641976
-0.007796541006702686
-0.009562476505645123
-0.006175822076380381
-0.007342262541836933
-0.001459811121888721
-0.001338768463394715
-0.001380379774144504
-0.001653457070709002
-0.00176264016096703
-0.001496898799133065
-0.001568627511269672
-0.001884372289641981
-0.002153919143745285
-0.002327612905390647
-0.001583734745499942
-0.001670884680896198
-0.001892860285465135
-0.002026226374188429
-0.002505690511360615
-0.002863516434692768
-0.00315450967579798
-0.00201416384971614
-0.002164037121219649
-0.002439420287050248
-0.002651170286235544
-0.003415746797054807
-0.003868160127599414
-0.004366773454208069
-0.002603685875404963
-0.002841523496671888
-0.003172435745209678
-0.003509916620380733
-0.004747837937716262
-0.005256162503636158
-0.006115659071370964
-0.003388848398549456
-0.003767875102804195
-0.004120236542554706
-0.004653534511728375
-0.008499639838858644
-0.005260072506808077
-0.006072888398657795
-0.005669381460874942
-0.006651899357099195
-0.004390030286542664
-0.004985370993954745
-0.001600406252415194
-0.001809964774921365
-0.00193242265923388
-0.001403986772340609
-0.001429167819697765
-0.001574771667009055
-0.001678084372263918
-0.00205854935876984
-0.002309733918893105
-0.00250001096674261
-0.00166247852367291
-0.001772416675638201
-0.001958075964807939
-0.002097209054978785
-0.002670940728027087
-0.002968185043162379
-0.003264644288791939
-0.002068099832859582
-0.002220423922516476
-0.002434634496217126
-0.002636712570190095
-0.00349121326611474
-0.003802345496354344
-0.004259121076874992
-0.002568965807293492
-0.002790924310978584
-0.003004898986683345
-0.00329626050658333
-0.005461026582135687
-0.003636856268528868
-0.004040746990407223
-0.004036598497236325
-0.004543118166956513
-0.003159322539215651
-0.003476935928310935
-0.001687428031258746
-0.001853137029948588
-0.001979300977382657
-0.001422399759294251
-0.00146058591702276
-0.001571772200606174
-0.001671510541831891
-0.002089588669936071
-0.002281365839987518
-0.002459634333840655
-0.001647778656805965
-0.001749332583348457
-0.001886470016358189
-0.002009388293965496
-0.002595564747945582
-0.002784556008687722
-0.003036685691308039
-0.001970465239472305
-0.002103113280876803
-0.002234270316613511
-0.002400045058936927
-0.003675469034225107
-0.002596151581440307
-0.002811266883485829
-0.002919353456776325
-0.003192873193717649
-0.002324801695146918
-0.002502562857584472
-0.001455544853201862
-0.00149489804033107
-0.00155448265548367
-0.001557845050772031
-0.00165243469707292
-0.001774552811012482
-0.001882673088797398
-0.001608209356659622
-0.001704809239474483
-0.001796855582570887
-0.001849348565067729
-0.001965558255437846
-0.002082479109987592
-0.002227027999478889
-0.002038174380092204
-0.002398777762319748
-0.002584406488728915
-0.001757668793898321
-0.001859186167362921
-0.002161954629411532
-0.002316663318564706
-0.001657211606112588
-0.00194882982869277
-0.00207394446032732
-0.001486654879670172
-0.001568855159715158
-0.00182827721144041
-0.001941330900795874
-0.0146205004569602
-0.012866705242877
-0.02244402698816381
-0.01103797001416909
-0.01558395966617861
-0.008391597801482787
-0.01040217816540852
-0.01133024370935834
-0.006459042559906461
-0.007610684796817067
-0.007557568236106579
-0.009184755526009702
-0.005562670488660969
-0.006456942269859175
-0.00672950878356846
-0.004251144657100466
-0.00477640330739071
-0.005040074316950508
-0.005780850423729943
-0.003796308608648851
-0.004230631372933024
-0.004295174056290418
-0.002928058777054471
-0.003191765199490611
-0.003469378472339117
-0.003836456890595934
-0.002684059894435538
-0.002911732362686105
-0.002247506612830173
-0.002685587782894238
-0.002910446156846618
-0.001966072974127386
-0.002094394867368157
-0.002475051824774311
-0.002670893243855651
-0.001742247019859407
-0.00157147125233426
-0.001678352909670077
-0.001331216823928971
-0.001415478754272385
-0.001189221280998781
-0.001430013719737975
-0.001331460177939201
-0.00146379105434533
-0.001557721065082843
-0.001548300154507382
-0.001651345720572963
-0.001316636212201772
-0.001382553067915058
-0.001878418540412625
-0.001686071757907344
-0.001804456613161467
-0.002203661888474565
-0.002397824004435937
-0.002106026546756682
-0.002282625760247862
-0.002617351838817753
-0.003105603544227906
-0.003474247858249199
-0.002278383107493853
-0.002482766404855487
-0.002927856653327215
-0.003253716583554819
-0.003846561077993218
-0.004586194689974833
-0.005354126672411459
-0.00319955938186452
-0.003583922814228145
-0.004243515059875548
-0.004894477867855115
-0.006034064678438185
-0.007128093181022287
-0.008923106569940222
-0.004688074770302388
-0.005472808892953248
-0.006426497631318318
-0.007853632801208047
-0.01029071429104868
-0.00717693058986874
-0.008942409553063958
-0.0101492685703414
-0.01394844638372839
-0.02433534807734348
-0.02744045529854513
-0.02877829424377493
-0.01041063451961868
-0.01502715338366234
-0.001666662334782154
-0.001923386225470326
-0.002070483808581624
-0.001659108039272963
-0.001773547287839736
-0.002065085384851302
-0.002234692138347865
-0.002236684151547247
-0.002605794661583119
-0.00286193521126152
-0.002231214789099276
-0.002426949588946124
-0.002854437616630482
-0.003163539095620011
-0.003122818057728865
-0.003646903223336674
-0.004121709709379339
-0.003113916752300374
-0.003477160606972338
-0.004104722509629636
-0.004711682702064958
-0.004545695534148526
-0.005265706587586514
-0.006198819688100085
-0.004523901666691267
-0.005251606713466925
-0.006149323619602721
-0.007446115230648425
-0.006911269267639073
-0.007788476694789547
-0.009722397349857428
-0.006844946550618136
-0.008435697201089002
-0.009565652976442917
-0.01260515541734021
-0.01094088387233082
-0.01106449922825745
-0.01571793502961095
-0.01886405893468406
-0.02216441309443017
-0.01010136293710162
-0.01441520582686885
-0.03776727067232036
-0.04893683929407824
-0.03795117488198839
-0.03610573209550132
-0.03146825282046061
-0.02842951505634366
-0.0291017473247059
-0.03201327189111818
-0.03665533972148127
-0.04573760648974915
-0.0341521256481515
-0.0299196424401932
-0.02444920142455856
-0.02776034876853781
-0.03216481861970635
-0.01157674000287998
-0.01665855723861871
-0.02295223019959573
-0.0298688750872095
-0.1074029634198836
-0.09522443137822575
-0.08989727585185796
-0.1146748880625981
-0.05728331397672681
-0.1070551996505037
-0.06979503803753118
-0.05569413817810843
-0.05510038214396772
-0.07619025789888405
-0.06046309377562949
-0.05337333817643246
-0.05435493264763865
-0.06785213479783299
-0.07580568541580776
-0.06036036360548075
-0.04370594929722885
-0.03987461632501291
-0.03460327180992138
-0.03991488003665693
-0.05055406565710076
-0.06859007111401266
-0.05577919956761993
-0.1026435376432196
-0.07128866521924135
-0.08639960906969379
-0.08234906633092351
-0.1350861481061628
-0.1462421298757551
-0.1139232112644191
-0.1220256213312364
-0.1024916574814104
-0.1278908340802797
-0.108634815515984
-0.08622390611012284
-0.08163198733219958
-0.1016447879046024
-0.1209177654089204
-0.1034916082507564
-0.07557867206877521
-0.08267330330229339
-0.08868516082253722
-0.1025206486517785
-0.09153192498566572
-0.07565234527042751
-0.09365835014030449
-0.08639080503914343
-0.08810596735068865
-0.1094443356170438
-0.09802422495298083
-0.06617164975945666
-0.06679270835628968
-0.07288539800337251
-0.08305214647537856
-0.07905106995427851
-0.08453769305405033
-0.1065084026502655
-0.1274974254921127
-0.1377442700321965
-0.1084535583847866
-0.09858174801133442
-0.09255461629852602
-0.1161116060907987
-0.06500890017506533
-0.07401717035953659
-0.04684244770853983
-0.05260634237945439
-0.062227540651206
-0.07593059327065586
-0.07708751049219473
-0.04757193751146191
-0.07991596566029596
-0.07366358577352491
-0.05681175944126073
-0.06127849220603137
-0.07424757450033118
-0.0471018448850798
-0.05376072699333216
-0.06063968987686116
-0.0611943661972367
-0.07132448760040645
-0.04623540094876485
-0.04758457068928951
-0.04911979320219675
-0.04863497361990844
-0.001682790310575164
-0.001983183084818317
-0.002112016123622737
-0.01514514120569791
-0.01332392397166172
-0.02351375385052902
-0.0120528611505064
-0.006738451421020271
-0.007975165610915028
-0.007025600364493773
-0.004388086748966857
-0.00494185426108187
-0.004433125233857768
-0.002999685799769899
-0.003274288047463254
-0.002291662541739761
-0.00274706955371898
-0.00298063102974834
-0.01603160782310062
-0.02568226943109722
-0.03694512901487083
-0.05174327474889408
-0.06941967814213672
-0.05662884101890428
-0.07139543089395903
-0.1424409939752483
-0.1547466776873274
-0.1066661744966117
-0.1345381479486146
-0.09316337652974606
-0.08467955182617155
-0.1060499314536502
-0.1269075672239567
-0.1194110121947924
-0.1112601967731811
-0.1340733388170506
-0.1452673053831759
-0.03722723024297551
-0.03387675930140533
-0.03402093160324349
-0.02861331371697441
-0.03216433198260309
-0.02665549003574601
-0.02917466045940991
-0.02731329593211467
-0.06185575423034187
-0.04991954694692664
-0.0479835396409724
-0.05196392120748023
-0.04632947858040631
-0.06213478128117851
-0.05162700650534454
-0.03885647531306562
-0.03566600952599139
-0.03137072369738123
-0.04822841716450191
-0.07620221809391239
-0.06380529313544171
-0.05278428591356235
-0.001281849091124179
-0.001369670921457762
-0.001524112208630569
-0.001336063966952701
-0.001382781298270307
-0.001186773377152879
-0.001225575962400697
-0.001309376227556897
-0.001195296109009521
-0.001232520813769791
-0.001131918327861
-0.001167671946931144
-0.001073992210197553
-0.00110513267359707
-0.001211377410750294
-0.001333104652870537
-0.001371695092008047
-0.001132629891357088
-0.001161462577924595
-0.001273651411916452
-0.001309599184520033
-0.001298641934848052
-0.001358714038987818
-0.001388776601089245
-0.001138365211024143
-0.001160496749373307
-0.001212876225629074
-0.001237504298046122
-0.0014907496203116
-0.00147727676284597
-0.001677733672654307
-0.001290638262784578
-0.001315626381801529
-0.001367832145127502
-0.001402807913182804
-0.001570186165099662
-0.001507433207582345
-0.001551244204348477
-0.001477620088243543
-0.001509284442936358
-0.001601976179876367
-0.001512889013091328
-0.001642694415591569
-0.001577500530125038
-0.001631189467008065
-0.001488910320564745
-0.001540573343733465
-0.001686182307268197
-0.001589516095212824
-0.002176175922540367
-0.002087503428446808
-0.00216221861717557
-0.001949148074085544
-0.002022257293899034
-0.002250927565008092
-0.002093107669930722
-0.002975917306240121
-0.002858004243811269
-0.002951752060892107
-0.002619162539233854
-0.002743903149391202
-0.003107993456075684
-0.002832194245782354
-0.004195918558962528
-0.00404827740000405
-0.004150084841254958
-0.003616631935132951
-0.003840049498782563
-0.004439574392402955
-0.003935798525082581
-0.006075193332339944
-0.005923217849187967
-0.005982278899355944
-0.005111244802001483
-0.005527081081902618
-0.006542924324802455
-0.005587317605350061
-0.008924905924125587
-0.008880167575144047
-0.008723787956964041
-0.007313427782314418
-0.00810496481934752
-0.009843724958329395
-0.007994550487753353
-0.001469620959651572
-0.001427334866104692
-0.001388817891670534
-0.001456771986590851
-0.001421564575265251
-0.001508980181312051
-0.001410511424074508
-0.001874965074611615
-0.001823143171675493
-0.001882391267454864
-0.00170175311510315
-0.001949432536843219
-0.001757485971808426
-0.001812929704007556
-0.002463583276291048
-0.00240538101550583
-0.002477549800733979
-0.002207965212154371
-0.002587460129521895
-0.002296476118895879
-0.002363520421891502
-0.003298817337876045
-0.003245951055343992
-0.003323103035136013
-0.002916528691797724
-0.00350883580242372
-0.003062213239456989
-0.003133376859179343
-0.00446769789688259
-0.004454487667011273
-0.004509822446870019
-0.003896692938185709
-0.004828247989478699
-0.004139581222489521
-0.004191716969187188
-0.006489431666239809
-0.007750389559443319
-0.006390278195575644
-0.006571614104331779
-0.007185734046184998
-0.006962721094518605
-0.005978706030696217
-0.001284213100856812
-0.001171588275828261
-0.00120325380658528
-0.00140372630408453
-0.001499554527820289
-0.001300728132453849
-0.001332742776214118
-0.0015941156065993
-0.001571102353894869
-0.001612153477085582
-0.001466110178333122
-0.001661657983302838
-0.001510923726448894
-0.001545832792926291
-0.00201073122940256
-0.001989088334163348
-0.002041785578274729
-0.001832017217696646
-0.002116914668174219
-0.001894131764260279
-0.001942263861023918
-0.002567548835521782
-0.002562691318367426
-0.002617465436548143
-0.002320739696895684
-0.002733933372095503
-0.002414004987040689
-0.002463947829441454
-0.003284378567382545
-0.003322208912294838
-0.00336352418626214
-0.002947916575094968
-0.00354396166534701
-0.003089625251472919
-0.003127387577747544
-0.004393506126376757
-0.005112823253490589
-0.004357433362636685
-0.004528877893866631
-0.004829304763452046
-0.004634016621709823
-0.004139837204443927
-0.001373124497771667
-0.001427460675798442
-0.001602159748911631
-0.001221115924465729
-0.001259427992778247
-0.001343102089776632
-0.001386531668758493
-0.001637369429091705
-0.001636062646054548
-0.001668100922373878
-0.001506369142326476
-0.001722724516017764
-0.001561352907123346
-0.001584509444634662
-0.002004100188962897
-0.00201983616770663
-0.00205735802081412
-0.001844551731429218
-0.002130540208421792
-0.001904677008872476
-0.001938875745640432
-0.002446644976362026
-0.002496416912982542
-0.002524625725676217
-0.002245416276167009
-0.002629078279909441
-0.002329647036190834
-0.002355122170026293
-0.003074654948244143
-0.003500392199036128
-0.003060026397766133
-0.003194436921997103
-0.003350690171769856
-0.003203289197384317
-0.002940708584249823
-0.00105892264274042
-0.001119185820297716
-0.001149972570268984
-0.00112439334418719
-0.001156019274329569
-0.001220191134008744
-0.001261613555099837
-0.001245841747819788
-0.001293767129567972
-0.001351850409885786
-0.001320640139081882
-0.001382867187387679
-0.001250952793357151
-0.001585147595832674
-0.001745151849975955
-0.00158335633195264
-0.001600209217711567
-0.001637724716005562
-0.001641203551956701
-0.001681353560730097
-0.001697764846051949
-0.002066666333268067
-0.001975987227815248
-0.00206054917006615
-0.001863411823365252
-0.001921210568769713
-0.002129520798414805
-0.00200108347557171
-0.00129488524904462
-0.001423805408949154
-0.001474582803692726
-0.001219025202770897
-0.001254842010398412
-0.001380618838797078
-0.001425305271109537
-0.001701274448709148
-0.001611900917464503
-0.001682994951834409
-0.001544232513610639
-0.001586108620257865
-0.001730888578791375
-0.001654802737070921
-0.01287635477771618
-0.01094579206267642
-0.01162722570567258
-0.009617632787266163
-0.01085450573856112
-0.01443163708249998
-0.01024155090489413
-0.008454867225331661
-0.0101770977659698
-0.008096925900722285
-0.008586514205893578
-0.009561684739374793
-0.008952858673887983
-0.007673289589782323
-0.00535389049295323
-0.006246614320132317
-0.005209952596463932
-0.005548375569433194
-0.005970959924988031
-0.005582727900158227
-0.005005111108818502
-0.003574649086934582
-0.004070875313341219
-0.003508644271818173
-0.003733062990484835
-0.003936007201677721
-0.003688774844132353
-0.003403415885351935
-0.002305628628190792
-0.002174486940439059
-0.002276635654196822
-0.002060829334421754
-0.002129034627470269
-0.002358179187489211
-0.002227039676341441
-0.001116069193900612
-0.001061440210087296
-0.001097568530156987
-0.001226558125497224
-0.001269218168056881
-0.001190239269451044
-0.001250015977442571
-0.001044459359835322
-0.001138540142547964
-0.001175728970134108
-0.001040992146194317
-0.001073358636407978
-0.001168875621091958
-0.001213166771294728
-0.001552707781287355
-0.001684272420358275
-0.001611443645749455
-0.001518169971772627
-0.001569114988154745
-0.001666251256549693
-0.001500883444122203
-0.001934360588440966
-0.001813190153832601
-0.001731840967924205
-0.001885647866000972
-0.001793118569830207
-0.001957194798345429
-0.001864551684077792
-0.002689918066626629
-0.002502093017284776
-0.002601716382316124
-0.002358918918731218
-0.002731339676537162
-0.002466654670762633
-0.002564154861191539
-0.003925539580190734
-0.00362176666575623
-0.003750715061441077
-0.003347684336789707
-0.00400642372601717
-0.003553839818944628
-0.003679834650865803
-0.006065227374825723
-0.005549311322683628
-0.00568049767930836
-0.004976843881042814
-0.006237215884342084
-0.005408161979659848
-0.005538031804828327
-0.01002485514090126
-0.00910428330895946
-0.00904708377987766
-0.007773000440354574
-0.01043389693594427
-0.008779737523705549
-0.008754059790783223
-0.0197856889010298
-0.01524889835788418
-0.0161811426528754
-0.01985448537110693
-0.01413337209967691
-0.01750971001270723
-0.01453877573143267
-0.001769491106041495
-0.001614292654834392
-0.001671872650788276
-0.001597445031694465
-0.001728647446638967
-0.001649854096379653
-0.001710640289745766
-0.002395237363203216
-0.002151261266647306
-0.002229772437893887
-0.002125878664310004
-0.002324190230111544
-0.002212907370586075
-0.002295106283841495
-0.003368763260245058
-0.002971057369967514
-0.003070195735165206
-0.00292569467705432
-0.00323941753482865
-0.003081860896153187
-0.003186250321506625
-0.004935969170486035
-0.004258637471079298
-0.00436621908726337
-0.004170413806137194
-0.004687189269378304
-0.004468757249179572
-0.004581690545254067
-0.007538529683864573
-0.006334332237199166
-0.006390079279754962
-0.006148548632839813
-0.007032324159660237
-0.006756087080491233
-0.006805944228558118
-0.01296720642023559
-0.009713059041893844
-0.009497399331896491
-0.009299694521450672
-0.01083841060956994
-0.01059381009911781
-0.01033595835793156
-0.04624573649791461
-0.04553282916682195
-0.05059299805230559
-0.03660186770578944
-0.03360390542547668
-0.03900539566361619
-0.03611380089294691
-0.04227881923677885
-0.03848004464527702
-0.03951314006290712
-0.02226475378052495
-0.02086937769346563
-0.01720648966942644
-0.0150827440371515
-0.01806501411581527
-0.02630010531318992
-0.01586794327585536
-0.107571020023214
-0.1017311968046133
-0.1008470612480023
-0.1085476548081494
-0.06042357405344987
-0.07781074530315908
-0.07219637468688911
-0.09585013862743318
-0.08408612119145192
-0.0715462996758581
-0.08039784484292227
-0.05669508875109344
-0.05117238270898053
-0.06287358304803628
-0.05633711512511514
-0.05037860982081254
-0.04997035460819763
-0.04726761069075559
-0.05661128671988286
-0.04605383043918412
-0.05497051980841967
-0.05180077058569801
-0.1506251801625795
-0.1631401025797528
-0.16104063219298
-0.1524454714290891
-0.1070137499829704
-0.11458126747373
-0.102629109364679
-0.1202721435039842
-0.09382397321095008
-0.09457655300441177
-0.1038726367372687