/*--------------------------------*- C++ -*----------------------------------*\
  =========                 |
  \\      /  F ield         | OpenFOAM: The Open Source CFD Toolbox
   \\    /   O peration     | Website:  https://openfoam.org
    \\  /    A nd           | Version:  7
     \\/     M anipulation  |
\*---------------------------------------------------------------------------*/
FoamFile
{
    version     2.0;
    format      ascii;
    class       surfaceScalarField;
    location    "0";
    object      phi;
}
// * * * * * * * * * * * * * * * * * * * * * * * * * * * * * * * * * * * * * //

dimensions      [0 3 -1 0 0 0 0];

internalField   nonuniform List<scalar> 
36286
(
-1.887096608798717e-06
7.297294076924298e-06
-7.597184191235301e-06
-1.84158100400149
-3.786638202547557e-06
7.467372513313154e-06
-7.787345445960504e-06
-1.841583553181742
-5.711372623289366e-06
7.815212641290805e-06
-8.177611390627729e-06
-1.84158870343142
-7.674493054827801e-06
8.356515657923179e-06
-8.788474579018698e-06
-1.841596558513892
-9.689433915502145e-06
9.115645100175903e-06
-9.652187670375215e-06
-1.841607273714573
-1.176907115822825e-05
1.012651814804961e-05
-1.081456074670044e-05
-1.841621054448559
-1.392399145357341e-05
1.143361344321262e-05
-1.233727066971516e-05
-1.841638152632768
-1.615938168091656e-05
1.309284763053961e-05
-1.430047713842847e-05
-1.841658858962447
-1.846998147004173e-05
1.517188059222396e-05
-1.680528806707121e-05
-1.841683488357262
-2.083249381944651e-05
1.774911601229744e-05
-1.997517975968101e-05
-1.841712354758343
2.091025650258324e-05
-2.319498188705513e-05
-2.395481546088538e-05
-1.841745730273473
-1.704652781940911e-06
6.853029916963087e-06
-1.841573182301694
-3.41350867201808e-06
7.002128041938118e-06
-1.841575385305241
-5.130714655359209e-06
7.306089697783436e-06
-1.841579825975757
-6.86017180765074e-06
7.776598017983376e-06
-1.841586572941701
-8.605066263549511e-06
8.431526771793043e-06
-1.841595727135896
-1.036694470862484e-05
9.295261413353287e-06
-1.841607418615155
-1.214412415531846e-05
1.039893759208786e-05
-1.841621800962677
-1.392919454371213e-05
1.178037764285925e-05
-1.841639041960406
-1.570537050914774e-05
1.348338272322277e-05
-1.841659308764001
-1.744152551019269e-05
1.555587191246356e-05
-1.841682745354269
1.804616758876636e-05
-1.908597827644561e-05
-1.841709439755846
-1.544714616927894e-06
6.279574399050962e-06
-1.841565960957837
-3.08744776574314e-06
6.40762029133629e-06
-1.841567862452088
-4.625998455840591e-06
6.667917981770322e-06
-1.841571687055882
-6.157627069868588e-06
7.068919174736508e-06
-1.841577477001877
-7.678534579724783e-06
7.623371339614257e-06
-1.841585292952189
-9.18302675381476e-06
8.348313913697344e-06
-1.841595210224419
-1.06622477948375e-05
9.264911936835035e-06
-1.841607312821246
-1.210237405226518e-05
1.03979622058352e-05
-1.841621684431864
-1.348220289543178e-05
1.177483505884701e-05
-1.841638395374382
-1.477017516959387e-05
1.342353955677458e-05
-1.841657484343784
1.536953462904691e-05
-1.592108529482062e-05
-1.841678933941687
-1.407359257524523e-06
5.592771173900033e-06
-1.841559449631653
-2.808225366305701e-06
5.700237178483745e-06
-1.84156109391661
-4.195842841917898e-06
5.918152500105806e-06
-1.841564394471249
-5.562863975234781e-06
6.252461723755891e-06
-1.841569374204042
-6.900885721818172e-06
6.712002897497923e-06
-1.841576064698309
-8.199788313252311e-06
7.308343864379621e-06
-1.841584502520355
-9.446820164252576e-06
8.055443306664484e-06
-1.841594723711417
-1.062539691166537e-05
8.969022940777882e-06
-1.841606755987449
-1.171363085401706e-05
1.006550311244654e-05
-1.841620608125595
-1.268269831290246e-05
1.136032608763057e-05
-1.84163625606358
1.286548996432113e-05
-1.349529951966137e-05
-1.841653625478777
-1.292080044541651e-06
4.808783414098103e-06
-1.841553735649931
-2.574466710907358e-06
4.896446458887403e-06
-1.841555165499521
-3.837227971515629e-06
5.073827357389429e-06
-1.841558030254276
-5.069912276816833e-06
5.34498598305137e-06
-1.841562339029835
-6.261188339650518e-06
5.715870390681364e-06
-1.841568102936037
-7.398371687297183e-06
6.194097548529429e-06
-1.841575331794459
-8.466819570679129e-06
6.788577586570634e-06
-1.841584029438472
-9.449198146165293e-06
7.508909945665037e-06
-1.841594187365253
-1.032466897193565e-05
8.364465469050876e-06
-1.841605776532553
-1.106810287678437e-05
9.363065963998896e-06
-1.841618737199582
1.050919124098331e-05
-1.164952029088823e-05
-1.841632966944303
-1.198043550051421e-06
3.943886617059038e-06
-1.841548886827823
-2.384189506855121e-06
4.012636728858784e-06
-1.841550142867327
-3.546355003735513e-06
4.151505101938504e-06
-1.841552655147673
-4.672063070792668e-06
4.363172159989715e-06
-1.841556423197567
-5.748192108817994e-06
4.651507224920144e-06
-1.841561444087581
-6.760670516457632e-06
5.021354014454744e-06
-1.841567709664474
-7.694116105022182e-06
5.478191476118349e-06
-1.841575202720215
-8.531440259897207e-06
6.027627199806888e-06
-1.841583892019457
-9.253466132008725e-06
6.67467767185094e-06
-1.841593726161825
-9.838649607506936e-06
7.422795626155221e-06
-1.841604626362496
8.272626892428633e-06
-1.026303999883367e-05
-1.841616478428719
-1.124295032976067e-06
3.014357391285558e-06
-1.841544954381476
-2.235224840176195e-06
3.065052738534227e-06
-1.841546074895149
-3.319298890260102e-06
3.167312798927733e-06
-1.841548312828863
-4.362764870715596e-06
3.32282704149268e-06
-1.841551661252566
-5.351455952239362e-06
3.533999213354017e-06
-1.841556107902669
-6.270619111228977e-06
3.80377068210055e-06
-1.84156163291162
-7.104734151764964e-06
4.135352724724971e-06
-1.841568205752694
-7.837346565060512e-06
4.531844731288827e-06
-1.841575781415109
-8.450956955572419e-06
4.995715648323562e-06
-1.84158429588193
-8.9270321445769e-06
5.528134109363583e-06
-1.841593661078029
6.128151013358979e-06
-9.246226991276535e-06
-1.841603759597284
-1.069913922747543e-06
2.036425513830619e-06
-1.841541975657002
-2.125530051363788e-06
2.069788543502894e-06
-1.841542996723107
-3.152478136464105e-06
2.137021176767343e-06
-1.841545033625053
-4.136239611122536e-06
2.239101085737509e-06
-1.841548075273564
-5.062071010267262e-06
2.377401535940675e-06
-1.841552103467528
-5.914929696576912e-06
2.55356820802286e-06
-1.841557091028612
-6.679415547121302e-06
2.769337691139303e-06
-1.841562999355141
-7.339750362464289e-06
3.026285513078362e-06
-1.841569775460293
-7.879829490550551e-06
3.325494390501037e-06
-1.841577348613995
-8.283391555534827e-06
3.667138694493661e-06
-1.841585626785282
4.049994239476917e-06
-8.534361769817733e-06
-1.841594493184487
-1.034125263600213e-06
1.026264007771437e-06
-1.841539976482238
-2.053409331749643e-06
1.042811361620299e-06
-1.841540932344181
-3.042976594408063e-06
1.0761378203538e-06
-1.841542837569058
-3.987884156978831e-06
1.126688523532727e-06
-1.841545678612171
-4.873096286442132e-06
1.195082995039843e-06
-1.841549433803273
-5.683472886405597e-06
1.282052451059619e-06
-1.841554071762467
-6.403786576314397e-06
1.38834857154923e-06
-1.841559549366735
-7.018787785807036e-06
1.514619028611212e-06
-1.841565809356766
-7.513346253736536e-06
1.661246365219336e-06
-1.841572777724181
-7.872700833906339e-06
1.828150124529046e-06
-1.84158036108262
2.014557672401659e-06
-8.08285487173958e-06
-1.841588444300953
-1.016374854308189e-06
-1.841538973016064
-2.017659893813793e-06
-1.841539896613398
-2.988750644455542e-06
-1.841541736720622
-3.914517136805656e-06
-1.841544478658626
-4.779803788622998e-06
-1.841548099165777
-5.569448604683828e-06
-1.841552564956934
-6.268335743691658e-06
-1.841557830896982
-6.86150004149064e-06
-1.841563837888529
-7.334307916700605e-06
-1.841570510621594
-7.672740705508173e-06
-1.841577755387455
-7.863807541682852e-06
-1.84158545822266
4.470899611001424e-06
-6.791768521284516e-06
-8.617427105813955e-06
-1.84160380332105
2.218758737765935e-06
-8.131146955747691e-06
-1.841596888755987
-7.896107475555848e-06
-1.841593483707747
2.474076639899448e-05
-2.890385474660025e-05
-2.546326572172579e-05
-1.841783782670021
2.09965553354125e-05
-2.055962842386422e-05
-1.841739378711083
1.763090924825135e-05
-1.687310741200152e-05
-1.841702639511816
1.458616881134216e-05
-1.410467946467101e-05
-1.841672571143754
1.180170080674661e-05
-1.203406096429334e-05
-1.841648307401577
9.220523912493739e-06
-1.050066285286775e-05
-1.841629124489593
-9.388920579778073e-06
-1.841614439703619
-3.198386673314783e-05
-3.34804485018265e-05
2.850383652531117e-05
-1.841836926038788
-3.527837870457169e-05
3.403386607719935e-05
-4.040833850121778e-05
-1.795844514179379
4.098227885424902e-05
-3.818979087084831e-05
-5.001388526622209e-05
-1.795903749391897
-2.743765204974767e-05
2.852353866754604e-05
-1.795780302592519
3.358722620506778e-05
-2.896737486740871e-05
-1.795824893860662
-2.172368673585071e-05
2.378050228202255e-05
-1.795727676813179
2.749435790163889e-05
-2.24816150478091e-05
-1.795761534847827
-1.753289848238637e-05
1.967495695978361e-05
-1.795684849208058
2.240759935317455e-05
-1.783876381737737e-05
-1.795710830660219
-1.444933067758139e-05
1.608001164740979e-05
-1.795650285756252
1.808928268001881e-05
-1.448970610340457e-05
-1.795670483008877
-1.218202944447675e-05
1.288296970903424e-05
-1.795622719887895
1.435005700796929e-05
-1.206828335367648e-05
-1.795638678365179
-1.052653908634452e-05
9.987862291621833e-06
-1.795601135277074
1.103948245214336e-05
-1.032492901487103e-05
-1.795614011608116
-9.339870061200075e-06
7.314433290162026e-06
-1.795584738598656
8.037840714072013e-06
-9.089397225135726e-06
-1.795595415418852
-8.523562798250909e-06
4.795591016946146e-06
-1.795572931785443
5.248740882709234e-06
-8.246879530043972e-06
-1.795582101925731
-8.012219517797261e-06
2.374250983475965e-06
-1.795565288003523
2.592467575482821e-06
-7.722378448397925e-06
-1.795573517609597
-7.765979589180461e-06
-1.795561533092645
-7.470734595119138e-06
-1.795569310811295
-4.008896041796133e-05
4.915513787227862e-05
-6.210897075346817e-05
-1.795968646468175
-3.774403111956492e-05
5.832451559826866e-05
-7.86117778596551e-05
-1.796037806931984
-4.182814568974441e-05
6.579561707441091e-05
-0.0005189586282852154
-1.796112113367641
0.0001976797690776133
0.0002489775081143952
-1.406343992899073e-06
-3.965455783919579e-05
7.745267017372666e-05
-2.698060025002613e-05
-4.660443475748566e-05
-8.229139152965415e-06
-2.085084102246282e-05
-1.796178598485611
8.935643363287126e-05
-3.682198638371714e-05
-3.165908016747391e-05
-2.516910595098953e-05
-3.948022822608532e-05
-2.368899213234243e-05
-1.796248050101312
-2.974205295479154e-05
3.9334874166741e-05
-1.79587278023353
-2.9313492207256e-05
4.560232260786279e-05
-1.79592282064467
-2.867409606542951e-05
5.197022763056841e-05
-1.795973600033996
-2.622211533653237e-05
5.890140622819495e-05
-1.796022016809708
6.571003657339617e-05
-2.091017267911799e-05
-1.79606725102574
-2.266973998664329e-05
3.160882947383925e-05
-1.795797245280802
-2.212782202231439e-05
3.601854338454732e-05
-1.795833887569763
-2.085281683089348e-05
4.055696075610232e-05
-1.795870249331763
-1.853912197385665e-05
4.511225746015322e-05
-1.795904729523116
-1.486557144250001e-05
4.937843938521432e-05
-1.795935761234531
5.281941184804031e-05
-7.106673199799568e-05
-1.000373864334358e-05
-1.795961022111356
-1.76937314498964e-05
2.537551757383052e-05
-1.795737802324211
-1.700658195633153e-05
2.850131669095183e-05
-1.795765044558046
-1.571252980216366e-05
3.167417748487805e-05
-1.795791650624309
-1.372507777707671e-05
3.476139500745397e-05
-1.795816540766289
-1.098270995971109e-05
3.757666827666475e-05
-1.795838537685419
3.987518429267839e-05
-7.610173425161678e-06
-1.795856331813738
-1.416651779397248e-05
2.023513542023389e-05
-1.795691159682377
-1.342626298201083e-05
2.245916365950508e-05
-1.795711758313942
-1.222885239054724e-05
2.468197971748869e-05
-1.79573160769673
-1.054826764463546e-05
2.680535206884947e-05
-1.795749944210534
-8.389018960297064e-06
2.871089561744393e-05
-1.795765951777142
3.026682630760381e-05
-5.826797945780537e-06
-1.79577880835749
-1.165688026800934e-05
1.589500891454874e-05
-1.795654816729552
-1.091799331476296e-05
1.747446061273195e-05
-1.795670701980328
-9.832796969533255e-06
1.903213825865549e-05
-1.795685833296126
-8.398014563421107e-06
2.050045109418834e-05
-1.795699660894385
-6.633275938797829e-06
2.180322933450652e-05
-1.795711615716101
2.286196291123586e-05
-4.591269907250995e-06
-1.79572114972305
-9.874595683356885e-06
1.213440455631074e-05
-1.795626894666746
-9.160279006590382e-06
1.324139334740158e-05
-1.795639443900349
-8.175923682534482e-06
1.43214635607674e-05
-1.795651278996722
-6.927933788086749e-06
1.532928933368986e-05
-1.795661995219611
-5.438579984188559e-06
1.621576090921823e-05
-1.795671185404956
1.693215210037649e-05
-3.748693472357832e-06
-1.795678468108136
-8.625447598064506e-06
8.784475669302045e-06
-1.795606000858576
-7.941506381820638e-06
9.532903987838473e-06
-1.795616220789164
-7.038673118744952e-06
1.025716738809964e-05
-1.795625778182419
-5.927621698618976e-06
1.092786224177185e-05
-1.795634365308657
-4.630189979199662e-06
1.151393952498982e-05
-1.795641679949853
1.198526621821974e-05
-3.18005731938936e-06
-1.795647444821689
-7.780906281094861e-06
5.713551123745376e-06
-1.795591126812738
-7.124233221594109e-06
6.17666322724465e-06
-1.795599777774612
-6.281847752013366e-06
6.622239773842703e-06
-1.795607813119467
-5.266280488717976e-06
7.032669195303309e-06
-1.795614987969969
-4.098335594909106e-06
7.389665889387071e-06
-1.795621066543546
7.675728214253266e-06
-2.807124422930828e-06
-1.795625836104058
-7.25832139774407e-06
2.815473110306517e-06
-1.79558157420508
-6.621435822904555e-06
3.036862779026697e-06
-1.795589257382318
-5.818711059799719e-06
3.249138693070642e-06
-1.795596359150366
-4.863438355119694e-06
3.444053860016012e-06
-1.795602672235347
-3.775537201528661e-06
3.613128931909233e-06
-1.795607999974656
3.748312179993287e-06
-2.581353512397963e-06
-1.795612167129924
-7.008500910505394e-06
-1.795576903863122
-6.381899474967857e-06
-1.795584125370716
-5.598764915253755e-06
-1.79559078327857
-4.672650688258866e-06
-1.795596687906055
-3.622993746851799e-06
-1.795601660723229
-2.474830089733286e-06
-1.795605543738013
-2.91485010516844e-05
8.455781015512867e-06
-6.731665452933391e-06
2.22683958578447e-05
-1.84174930555092
-3.784962826110796e-05
1.049835947283986e-05
-8.438311860083308e-06
-1.841800638957956
-4.921300942752897e-05
1.34628848442731e-05
-1.095448914853407e-05
-1.841868589554437
-6.450487283130646e-05
1.781118803922382e-05
-1.473107926130963e-05
-1.841958540106624
-8.573891061782107e-05
2.427228573495488e-05
-2.055293715158685e-05
-1.842078166078792
3.400216560383296e-05
-2.982681706925513e-05
-3.022227963100921e-05
-3.038053777498773e-05
-4.015014509486936e-05
-1.614870251670508e-05
-1.842237975537579
-3.529903231935805e-06
5.768351771769862e-06
-4.842958453054876e-06
-1.841638166047687
-7.197897900674081e-06
5.98203800499154e-06
-5.030737312322908e-06
-1.841643896381051
-1.115745264712587e-05
6.430562209540036e-06
-5.426092770672639e-06
-1.841655665672576
-1.559499089303832e-05
7.159604472404134e-06
-6.072037103500976e-06
-1.841674120691039
-2.075230306327709e-05
8.246853142549821e-06
-7.042443621588182e-06
-1.841700309511779
-2.695741880611744e-05
9.815236702846158e-06
-1.841735787301772
-3.466956979788656e-05
1.205494599254608e-05
-1.841782780164351
-4.454856684907582e-05
1.525972055605777e-05
-1.841844431703862
-5.757402696164732e-05
1.988835480750242e-05
-1.841925170685521
-7.530162876598388e-05
2.668062899944795e-05
-1.842031260880042
3.693791162310138e-05
-0.000100584724496774
-1.842171663216376
-3.300681130244405e-06
6.527373863867519e-06
-1.841631245674783
-6.716764146643672e-06
6.756593798368803e-06
-1.841636527539748
-1.037540603491779e-05
7.236072184844853e-06
-1.84164735387764
-1.442869481183441e-05
8.010948811116425e-06
-1.841664272312826
-1.906989160636856e-05
9.157182938442724e-06
-1.841688162945402
-2.455487351391722e-05
1.079326136851012e-05
-1.841720316517794
-3.123179504694427e-05
1.309933581102542e-05
-1.841762552772359
-3.958341199129762e-05
1.634809262199338e-05
-1.841817393728213
-5.028792670458412e-05
2.095510177468896e-05
-1.841888313950108
-6.429859982359341e-05
2.756250297153401e-05
-1.841980097180219
3.717347615861409e-05
-8.289043959555129e-05
-1.842099298471545
-3.054795962809511e-06
7.106877030296938e-06
-1.841623514059151
-6.202425729453483e-06
7.341891377695825e-06
-1.841628316088723
-9.544192714521948e-06
7.831669862723687e-06
-1.841638136891362
-1.31991247875204e-05
8.618282486650114e-06
-1.841653425912007
-1.73148635972257e-05
9.771687431815915e-06
-1.841674898647554
-2.208113805033544e-05
1.139923825997279e-05
-1.841703590341858
-2.774684034331359e-05
1.36607760633971e-05
-1.841740934625491
-3.46414544709037e-05
1.679198395474788e-05
-1.841788873349692
-4.320014047465293e-05
2.114013052079154e-05
-1.841850004643028
-5.398886965890059e-05
2.721787205900314e-05
-1.841927771670164
3.578151343331327e-05
-6.774353052379753e-05
-1.842026663689886
-2.802695116094284e-06
7.500888641816821e-06
-1.841615216758974
-5.677038344300544e-06
7.733227058244916e-06
-1.841619528373109
-8.70039014004249e-06
8.215557322583467e-06
-1.841628325181538
-1.196186259052529e-05
8.985190220579623e-06
-1.841641964893142
-1.556898317876344e-05
1.010336843890241e-05
-1.841661011008554
-1.965517722833425e-05
1.166237615154453e-05
-1.841686266648935
-2.438798085602845e-05
1.379640121313107e-05
-1.841718821847266
-2.997717990047263e-05
1.669746517010507e-05
-1.841760115222236
-3.668052231405805e-05
2.063805163743374e-05
-1.841812008971175
-4.480261660397264e-05
2.600189713250189e-05
-1.841876869954902
3.332335451530964e-05
-5.468615117813804e-05
-1.841957633094026
-2.553464761315547e-06
7.709695048544723e-06
-1.841606596836741
-5.159640699871436e-06
7.932520546902401e-06
-1.841610425443619
-7.874801781326812e-06
8.393292837777818e-06
-1.841618217535391
-1.076238825748367e-05
9.123708359621352e-06
-1.841630249204627
-1.38966292411169e-05
1.017508459808243e-05
-1.841646950461467
-1.736599982408681e-05
1.162327182496977e-05
-1.841668924225104
-2.1275997702095e-05
1.3575825470153e-05
-1.84169697108603
-2.575009671876115e-05
1.618188830548751e-05
-1.84173211819774
-3.092670335396485e-05
1.964509820595595e-05
-1.841775648218984
-3.694885940522007e-05
2.423930627074076e-05
-1.841829119352859
3.032591666795909e-05
-4.394450116289819e-05
-1.841894358634903
-2.31443894543618e-06
7.738690940316323e-06
-1.841597884864463
-4.665368386724822e-06
7.946908268104763e-06
-1.841601252274131
-7.091282057558601e-06
8.375815277324582e-06
-1.841608088691302
-9.634572669887647e-06
9.05133617221526e-06
-1.841618600599133
-1.234315289637092e-05
1.001485543383751e-05
-1.841633105698996
-1.527148757053181e-05
1.132634164848894e-05
-1.841652041677676
-1.848046345933829e-05
1.306866675920362e-05
-1.841675976139441
-2.203509733123449e-05
1.535311079107195e-05
-1.84170561525395
-2.5998477611653e-05
1.832578031863478e-05
-1.8417418066296
-3.041972758232687e-05
2.217412996741408e-05
-1.841785528553316
-3.531390825904993e-05
2.713193929779135e-05
-1.841837852500724
-2.091083355325102e-06
-1.84158929169427
-4.2052780725651e-06
-1.84159223030175
-6.366648043722271e-06
-1.841598181530642
-8.601001618189977e-06
-1.841607294649911
3.837155857467035e-05
-4.333697355463073e-05
-5.200408533932071e-05
-1.841973396801613
-4.06350228205191e-05
-1.841899857795035
-1.093631628043802e-05
-1.841619796333696
-1.340248831487604e-05
-1.841635992956427
-6.159341021496375e-05
-1.802857198271378e-05
1.828388597864575e-05
5.052297428577306e-05
0.4606513453797625
-0.4606405302578054
5.343294059733179e-05
-3.888518169109512e-05
-3.096515510925268e-05
-3.895490688246572e-05
-2.702531782666773e-05
-7.822142431390677e-06
-2.209509100931095e-05
-3.241620276622781e-06
-1.966535246114565e-05
-1.842359888629247
5.129378139726339e-05
-2.659278652217267e-05
-2.919552902588829e-05
-3.746804880766508e-05
-1.424581209952258e-05
-1.842254357086617
4.795390987118461e-05
-8.56942870443427e-05
-1.842152265034045
-6.671877806420971e-05
-1.842057788264803
-2.263252492453998e-05
0.4491747399439845
-2.567896598789504e-05
2.325113865027121e-05
-0.4491653689062644
-1.463250781347236e-05
-1.919455239300649e-05
-1.207703507512953e-05
-1.2903256481539e-05
-3.062942151310505e-05
0.4491789612354893
3.053307415279335e-05
5.816246076051352e-05
-1.814454300729657e-05
-2.56947319537057e-05
-1.143345542577168e-05
-0.4491688513620068
-5.470453548307133e-05
-2.985156014992203e-05
4.568500559882983e-05
2.828669090359499e-05
0.4491353929421749
-0.4491248085430506
6.378665317328704e-05
-1.562999837609325e-05
-2.316238721514208e-05
-2.667326716931928e-05
-7.260965084077142e-06
-2.563614244946444e-05
-3.195135417735639e-05
-3.973935857723432e-05
-1.093593663525905e-05
-1.796251033208172
5.546081702348098e-05
-8.085658961221032e-05
-1.796125183767408
-1.602993103651264e-05
-1.841656271648532
4.761664534628531e-05
-6.095089590729685e-05
-1.796015430428525
-4.611746796773504e-05
-1.795922264666871
-5.18381249244277e-05
-6.076195510378636e-05
-1.796001470885322
-1.884630258105407e-05
-1.841681097769218
-2.187033723723538e-05
-1.841711005022894
-2.510146527964126e-05
-1.841746572381162
-1.841788379174076
-5.87110548619082e-05
-7.811703041883413e-05
-1.796089968552373
-0.0006129995493280027
-5.037496749676906e-05
-2.020734672661395e-05
2.09154182695126e-05
-3.110941648981624e-05
-1.796183358534499
0.0002428696093124127
0.0002845943479072854
-9.809257669801674e-06
-0.4485095779802432
-0.0005479617078024258
-0.0005661732651791382
0.448491754776029
-2.420548701194343e-05
-5.767782672812102e-05
4.771960762553207e-05
2.583646939730484e-05
0.4491344356217368
-0.4491261083849949
0.4491275127283813
-5.351034777938276e-05
2.011934213224702e-05
-1.73146532634632e-05
-0.4491136290560149
-7.142193570770696e-05
-7.310114337868706e-05
-1.796121866115719
-3.553385619309291e-05
-9.988614043249244e-06
-2.323876575940909e-05
-2.769439718644517e-05
-1.759494366618264e-05
-2.800793754442754e-05
-3.521559191974055e-05
-6.695833612846425e-06
-1.796244141507643
-3.486935228155777e-05
-4.91795255080489e-05
4.617355819968467e-05
2.939197645091001e-05
0.4491322356882179
-0.4491237523450735
-5.755630982320634e-05
0.4491540903157443
-3.694592802029029e-05
5.039237906245836e-05
-0.4491448498083876
-1.660211694275854e-05
3.774574150831172e-05
-1.057769115953011e-05
6.258889186859111e-05
-2.313846249070439e-05
-1.32441403713629e-05
-1.985152747072116e-05
-0.4491913621405388
0.1123631968140252
0.1123144457227101
0.1123598994111334
0.1121632830995951
-2.228591770569999e-07
-1.435713155314988e-05
-1.180361113492512e-05
-7.023061650457407e-06
1.414361271627473e-05
0.1123007718824454
-2.20586502290166e-05
1.093616687342111e-05
-0.1122967699501434
-1.003584738874658e-05
0.1123166731969434
-2.918326698164719e-05
1.033200547709833e-05
-0.1123140337585369
2.624767048138497e-05
-1.687351055884886e-05
3.93701058293544e-05
0.1123541355429332
-4.362122671455969e-05
1.714277798605339e-05
-0.1123501536894835
-3.005541167940721e-05
6.002422997254272e-05
0.1124103876961531
-6.70135865082215e-05
3.002867798728309e-05
-0.1124033716059181
-5.661800507843979e-05
9.420251842142514e-05
0.1124970394689394
-0.0001058304034713068
5.525328401663489e-05
-0.1124840468628212
-0.0001128254229679281
0.0001508006170419043
0.1126329671455605
-0.000169730697322041
0.0001065270707451444
-0.1126077387130639
-0.0002352897034214774
0.0002397843047607484
0.1128455416048254
-0.0002671781422980114
0.0002120527431972801
-0.1127949108070726
-1.017199805289921e-05
0.1123053728302761
1.507271409729458e-05
-2.187799758609383e-05
-0.1123012988049883
-1.709698962692927e-05
3.00735345801087e-05
0.1123328954794705
-3.285519618678734e-05
1.681691741630859e-05
-0.1123298337456546
-2.845256593447114e-05
4.298731115573336e-05
0.1123742756803932
-4.707406642130073e-05
2.757355072931476e-05
-0.1123693099099192
-4.885141961294747e-05
6.18674800095253e-05
0.1124334034513179
-6.772575741026056e-05
4.630594811041334e-05
-0.1124249997024105
-8.582128935637238e-05
8.821109554976196e-05
0.1125173753913396
-9.593605079746202e-05
7.906853727412376e-05
-0.1125028976840096
-0.0002265728949820321
-0.0001489821813652912
0.1127404839003127
0.0001957412276078652
0.0001433805693495783
-0.1127040506209114
-3.6418966714889e-05
0.4491689628927951
3.538002327092345e-05
-6.336066855176067e-05
-0.4491592678154995
-1.407059115990955e-05
1.102022796557744e-05
0.1123166136608145
-2.169364396750097e-05
1.672161399760569e-05
-0.1123085912676593
-2.440941296755102e-05
2.977217522184519e-05
0.1123421377899252
-3.204632913136713e-05
2.327296552657774e-05
-0.1123387271885754
-3.848496638270671e-05
3.964623950497315e-05
0.1123813126650255
-4.243393951003222e-05
3.597090592893452e-05
-0.1123760109045779
-6.084342019887196e-05
5.13036503799265e-05
0.1124323640074589
-5.430902529044051e-05
5.557765255959226e-05
-0.1124240928649023
-0.00012802113598723
-6.861526905690766e-05
0.1125494531926971
0.0001117298601369235
6.801687666759101e-05
-0.112532563524457
-5.216705571690163e-05
-3.970139644586675e-05
3.557352239147216e-05
4.50740804358505e-05
0.449151270780753
-0.4491400499314295
-1.787728852466891e-05
0.449183700023827
-2.095433778993155e-05
4.362170509950325e-05
-6.550876614670742e-06
-9.004364668607767e-06
-1.385328216028936e-05
-0.4491736360809533
-1.219492661160004e-05
-1.739835495771086e-05
-8.019271554977891e-06
-1.971972303152214e-05
0.1123154177158323
-2.145353639372167e-05
1.848822400951633e-05
-0.1123127733046339
2.004062421264625e-05
-2.906469818064776e-05
2.536608449317461e-05
0.1123412006734679
-2.664091974927789e-05
2.701449199213833e-05
-0.1123378756320061
-4.222753900990508e-05
3.033548314953425e-05
0.1123724406384117
-3.145114163586527e-05
3.853295065581286e-05
-0.1123676303915762
-7.557138541775687e-05
-3.427456606895215e-05
0.1124365658366475
6.67209420716894e-05
3.467126283157683e-05
-0.1124281120900718
-3.789031036702251e-05
-8.865089185600139e-06
-2.089029311705404e-05
-2.995886924203606e-05
-1.889774329705274e-05
-3.321894517605006e-05
-8.863591061586407e-06
-2.722386314740755e-05
-1.796267879048791
0.4490958874056119
-3.736305182037259e-05
-3.91210351578825e-05
-0.4490928274846339
3.567258367801574e-05
0.449143692727624
-3.823585532111065e-05
-4.938938570106803e-05
-0.4491330821944999
4.134212422002292e-05
0.4491960632392278
4.432188164617491e-05
-1.342040291669316e-05
-1.399373258006292e-05
-8.063510100068949e-06
-1.126576196029683e-05
-1.56322298006592e-05
-2.055818814210297e-05
-1.28638056360042e-05
-1.679329149417014e-05
-0.4491853505078858
1.334826304607484e-05
0.1123108768099144
-1.4226634181594e-05
-2.185170676938242e-05
-0.1123047488489828
3.009019848938672e-05
-1.198879424867719e-05
0.112332497038393
-3.346743108600953e-05
1.238936403795489e-05
-0.1123295203755958
9.888206175030179e-05
-4.919191714028437e-05
2.000635137899831e-05
-2.769059481919078e-05
-3.894569432535966e-05
-2.614324587646433e-05
-3.457266529560687e-05
1.756150369905396e-05
-1.617886807872559e-05
-1.796310633146753
-1.219285925974356e-05
-1.796104475281851
-1.140994601602185e-05
0.449145053014842
-6.343253772576464e-05
1.082876786307674e-05
-0.44913023121644
-5.973773399580552e-06
2.136890488130955e-05
0.1123076286614442
-2.482543633774982e-05
6.285074599278914e-06
-0.1123044834311884
0.000361246296480118
-8.543068608334557e-05
-0.0001134484035539077
0.1130023917393098
0.000195603069954013
-0.112930000608169
-3.372575118732249e-05
-2.910433736399987e-05
-4.769724409641601e-05
-0.0001101423733574306
-0.0001018424630327228
-0.0001078492388915872
-0.0001483307961575845
0.1128987082948464
0.000299937347190317
0.0001535489910505115
-0.1128426175406109
-6.185324935733708e-05
-0.0001792983835027303
0.1126214002696581
0.0001527739174068389
6.511584350407636e-05
-0.1125981383977112
-2.877651320525582e-05
-9.740769244922343e-05
0.1124720778136208
8.461693324812164e-05
3.07793306457326e-05
-0.1124612898718649
-9.306485033201486e-06
3.515156928222552e-05
0.1123446842307967
-3.946275005617394e-05
1.013769717062029e-05
-0.1123412042621563
-4.008634165106246e-06
2.583747302035276e-06
-1.84165183457877
-8.20783246434861e-06
2.690523330507482e-06
-1.841658504484961
-1.281310107970057e-05
2.916367087240611e-06
-1.841672259035256
-1.809454358436824e-05
3.288254533255163e-06
-1.841693975959473
-2.441730129036332e-05
3.853330874111564e-06
-1.84172510135302
-3.230217613867375e-05
4.689193261625966e-06
-1.841767832262207
-4.252278838886767e-05
5.92247702170864e-06
-1.841825413434293
-5.627002695382805e-05
7.762729616584517e-06
-1.841902613369292
-7.544390801077818e-05
1.056485737638911e-05
-1.842006495687208
-0.0001031847740785508
1.494062562644147e-05
-1.842147698458497
2.193019034875543e-05
-4.259234689307778e-05
-3.015298753322737e-05
-4.307818816398634e-05
-2.899135965633848e-05
-1.842342595919263
-3.894095081260586e-06
3.771990995313513e-06
-1.841648653808846
-7.965568939551882e-06
3.923720356171595e-06
-1.841655098596711
-1.241417589866215e-05
4.244005922083922e-06
-1.841668376284389
-1.748838388993426e-05
4.769608594893901e-06
-1.841689306330487
-2.352066828483562e-05
5.564267596536604e-06
-1.841719233460246
-3.097922762661472e-05
-1.841760188934068
-4.054874191191399e-05
-1.841815149095638
-5.326417305623856e-05
-1.8418884421461
-7.075000354461734e-05
-1.84198639100844
-9.56870394659142e-05
-1.842118364763266
-3.785193582395152e-05
-2.732094804802632e-05
-3.944015668472245e-05
-2.803060622794118e-05
-1.842298749794701
-3.731334381179197e-06
-1.841644039457279
-7.621997311365929e-06
-1.84165016468274
-1.185035976917733e-05
-1.841662766754751
-1.663594992075811e-05
-1.841682585624199
-1.841710828763304
0.4606536643818053
9.059514390160689e-06
-6.297411101882784e-05
-0.460636497384936
0.4606294165800939
-5.465836382768788e-05
-1.322805112403028e-05
-0.4606135555653843
1.417346449258883e-05
-3.554158287144561e-05
0.1123266625291244
4.796284294104884e-06
3.187606604271308e-05
-0.1123238926721335
0.4491913519853198
-1.965487524522145e-05
6.722499702814869e-05
-1.904669160968098e-05