/*--------------------------------*- C++ -*----------------------------------*\
  =========                 |
  \\      /  F ield         | OpenFOAM: The Open Source CFD Toolbox
   \\    /   O peration     | Website:  https://openfoam.org
    \\  /    A nd           | Version:  7
     \\/     M anipulation  |
\*---------------------------------------------------------------------------*/
FoamFile
{
    version     2.0;
    format      ascii;
    class       volScalarField;
    location    "0";
    object      Phi;
}
// * * * * * * * * * * * * * * * * * * * * * * * * * * * * * * * * * * * * * //

dimensions      [0 2 -1 0 0 0 0];

internalField   nonuniform List<scalar> 
12679
(
29.65332685957895
29.65332826113612
29.6533310734934
29.65333531536166
29.6533410152504
29.65334821164695
29.65335695260166
29.65336729402766
29.65337929569045
29.65339301344857
29.65340848585777
29.6533210458007
29.65332231185582
29.65332484708773
29.65332865769809
29.6533337527859
29.65334014381655
29.65334784340413
29.65335686291279
29.65336720820317
29.65337887266933
29.65339182658748
29.65331558596917
29.65331673323733
29.65331902630199
29.65332246205681
29.65332703536074
29.65333273825114
29.65333955853626
29.65334747744708
29.65335646594771
29.6533664792549
29.65337744914627
29.65331058301155
29.65331162826512
29.65331371394975
29.6533168302256
29.65332096179566
29.65332608712192
29.65333217715037
29.65333919335632
29.65334708489779
29.65335578467668
29.65336520418736
29.65330612723232
29.65330708686738
29.65330899893814
29.65331184886873
29.65331561432082
29.65332026454027
29.65332575935214
29.65333204770618
29.65333906567828
29.65334673386744
29.65335495420909
29.65330229605871
29.65330318585234
29.65330495660317
29.65330759050078
29.65331106046805
29.65331532968234
29.65332035086999
29.65332606533287
29.65333240168107
29.65333927428192
29.65334658150178
29.65329915395124
29.65329998897143
29.65330164908537
29.65330411434714
29.65330735459691
29.65331132915304
29.65331598637679
29.65332126310241
29.65332708394336
29.65333336051617
29.65333999067266
29.65329675240277
29.65329754703381
29.65329912567681
29.65330146703988
29.65330453904808
29.6533082986764
29.65331269172764
29.65331765256677
29.65332310384025
29.6533289562335
29.65333510835455
29.65329512997585
29.65329589802645
29.653297423105
29.65329968314067
29.65330264496444
29.65330626424019
29.65331048538716
29.65331524151512
29.6533204544079
29.65332603461201
29.65333188171078
29.65329431234793
29.65329506721521
29.65329656574245
29.6532987855042
29.65330169283788
29.65330524282478
29.65330937928528
29.65331403481314
29.65331913088744
29.65332457811878
29.65333027670604
29.65334144687258
29.65333788489212
29.65333611719971
29.65342571290002
29.65340600184986
29.65338927382501
29.65337522722148
29.6533636063727
29.65335420391876
29.65334685789696
29.65344874069638
29.65347219835991
29.65349774477207
29.65344438821294
29.65346425685753
29.65342108072854
29.6534368116741
29.65340164892898
29.65341434516582
29.65338557190019
29.65339603520861
29.65337243241477
29.65338125388437
29.65336190533329
29.65336952799952
29.65335374393553
29.65336050728971
29.65334776708105
29.65335393931618
29.65334384845216
29.65334965040422
29.65334190837668
29.65334753201708
29.65352539944822
29.65355442938508
29.65358176126968
29.65361205061656
29.65364076598603
29.65348523323244
29.65350677058113
29.65352799759273
29.65354876159332
29.65356775002167
29.65345309146431
29.65346950748292
29.65348553107818
29.65350063139381
29.65351405627525
29.65352482099939
29.65342726289134
29.65344007559342
29.65345239070449
29.65346376874331
29.65347370759274
29.6534816605896
29.65340652775441
29.6534167862673
29.6534265087336
29.65343536410947
29.65344300251018
29.65344907731701
29.65338999298611
29.65339843417527
29.65340634030836
29.65341346060961
29.6534195419305
29.65342434533721
29.65337700467225
29.65338415524155
29.65339078854703
29.65339670904349
29.65340172582313
29.65340566410519
29.65336708926701
29.65337333528079
29.65337908602679
29.65338418299698
29.6533884754127
29.65339182830889
29.65335991119446
29.65336554564384
29.65337070457134
29.65337525349558
29.65337906700903
29.65338203476929
29.65335524247137
29.65336049849721
29.65336529333005
29.65336950687944
29.65337302867963
29.65337576268932
29.65335294185937
29.65335801698071
29.6533626383562
29.65336669263424
29.65337007627785
29.65337269982505
29.65341664054707
29.65343828930116
29.6534664004309
29.65350295120714
29.6535508593355
29.653614538102
29.65336665416089
29.65336927583968
29.65337462175855
29.65338290846078
29.65339449094738
29.65340990379846
29.65342992522356
29.65345567450616
29.65348876097491
29.65353152152543
29.65358744846457
29.65336205849602
29.65336450993028
29.65336949850844
29.65337720438029
29.6533879206523
29.65340208396702
29.65342032100835
29.65344351703649
29.65347291585707
29.65351026498035
29.6535580199086
29.65335685811575
29.65335912692973
29.65336373350587
29.65337082203096
29.65338062509446
29.6533934849401
29.65340988472433
29.6534304924572
29.6534562208584
29.65348830584337
29.6535284036776
29.65335119604339
29.65335327762067
29.65335749398867
29.65336395581689
29.65337283995887
29.6533844031294
29.65339900113901
29.65341711422823
29.65343937844672
29.65346662127497
29.65349989642788
29.65334522006068
29.65334711653318
29.65335094862707
29.65335679728622
29.65336479057192
29.65337511167587
29.65338800950068
29.65340381130268
29.65342293604295
29.6534459054778
29.65347334760149
29.65333907772121
29.65334079666792
29.653344261663
29.65334952839769
29.65335668404848
29.65336585137689
29.65337719359577
29.65339091913892
29.65340728472844
29.65342659394259
29.6534491868437
29.65333291228064
29.6533344653399
29.65333758862336
29.65334231716832
29.65350598542729
29.65347541468008
29.65334870518014
29.65335682764315
29.97897605418702
29.65366215329974
29.65361958309981
29.65357871717507
29.65354051213699
29.97906640208052
29.9790750830381
29.97897639865406
29.6536415672291
29.65358944514
29.65336678174588
29.65354412635461
29.65350521728966
29.6535386126975
29.65337868726494
29.65339268451885
29.65340892774014
29.65342757073822
29.65357615065003
29.65361866555183
29.97797825047875
29.97897585431111
29.97895570929406
29.65358826321026
29.65363998254302
29.97896968718256
29.97902018762379
29.97912836176587
30.14177865787002
30.14195053458332
30.14234560544819
30.14294210357198
30.14386936947809
30.14534545595717
30.14770503714598
30.14181903028432
30.14212097148655
30.14255842345154
30.14318695537708
30.14408754724865
30.14652528848478
29.97905562591235
30.14191618034289
30.14221821650805
30.14263276509536
30.14317545180411
30.14443232610167
29.97901116704616
29.97908671933376
30.1419370273225
30.14220839643399
30.14253868000863
30.14321991205318
29.65364799646352
29.97888890765566
29.97899468340362
29.9791142497813
30.1418576510853
30.14211713929096
29.65366369152683
29.65358289187085
29.97899646873156
30.14185584937163
30.14947224249431
30.14829149945164
30.14521269617784
30.14359912726057
30.14224594359045
29.65337557619951
29.65337855343444
29.65338464943733
29.65339416579887
29.65340760471718
29.65342573958286
29.65344973058901
29.65348131250079
29.65352310456325
29.65357913717397
29.65365577308044
29.65337351771952
29.65337640988563
29.65338232595806
29.65339154603565
29.65340453475577
29.65342200368712
29.65344501213204
29.65347512790852
29.65351468750655
29.65356723392828
29.6536383012255
29.65337051256186
29.65337328384469
29.65337894474455
29.65338774607276
29.65340010168543
29.97897656345816
29.97892359088992
30.14205613817778
29.97910338958251
30.14215908621092
30.14271163683009
30.14362625427576
30.14525305559785
30.14842384074812
29.91442828219369
30.14198333701491
30.14240075696199
30.14304034047689
30.14405442691976
30.14571422883303
30.14847408782965
29.59316778172731
29.58873228331429
30.2393146507542
29.65040557775412
29.08750151768006
29.6744466565676
29.04648946502549
29.64865572472592
29.04771841969172
29.93502972581809
29.73387510213792
29.97892900813391
29.65359172118273
29.653532065086
29.65348717140484
29.65345329672241
29.6534276700499
29.65340837867633
29.65339413110902
29.65338406751456
29.65337763194531
29.65337449194339
29.97901299348096
30.14187315271527
30.23115894845495
30.14872114727868
30.14539185731401
30.14368247991951
30.14227290030571
29.16591573705693
30.14201878868446
29.16595499025451
30.14192318225877
29.16593949569009
29.97911397551872
29.32855439459304
29.16594399724471
30.14223156790027
29.16598746583245
30.14185227772794
29.16592671447629
30.14208336446285
29.16596451242559
29.16600492591958
30.14276824028515
29.16606925997354
30.14217685344757
29.16597893609746
30.1425155306603
29.16603076966166
29.1660956213091
30.14359650701055
29.16619466475871
30.1426514214129
29.1660514527464
30.1431468785195
29.16612658789271
29.16623596207619
30.14490865416364
29.16639364947372
30.14334662752915
29.16615682064409
30.14407536448669
29.16626712127413
29.1664601868043
30.14701048944998
29.16671552532134
30.14436805639457
29.16631148251536
30.1454216272712
29.16647167810433
29.16682287819059
30.23273728204205
29.08530407471967
30.147265847971
29.16675441765775
30.14583574403614
29.16653490109209
29.16592055082289
29.97911514408844
29.32855466015379
30.14203386193811
29.1659567869053
30.14189698830875
29.16593389562737
29.16597027419877
30.1424339084813
29.16601829467238
30.14196217044079
29.16594480447355
30.14220329782976
29.16598284829948
29.1660372830757
30.14300775302116
29.16610550899874
30.14229799931741
29.16599743193419
30.14263009094184
29.16604817070791
29.1661326483965
30.14383203924735
29.16623027201132
30.14275855422189
29.16606770497506
30.14320431618305
29.16613529331714
29.16626896088708
30.14499196735272
29.16640621376656
30.14337432012601
29.16616102848987
30.14395025390362
29.16624819066926
29.16664038673569
30.14485076655771
29.16638470591712
30.14534142593005
29.16645940934708
30.14416315489742
29.16628042945819
29.16593639239432
30.14213197986258
29.16597181169096
30.14176092739522
29.16591985955924
30.14193678076771
29.16594146526839
29.16598515896591
30.14251792771197
29.16603108500046
30.14200148175675
29.16595165906487
30.14222130708131
29.16598568636517
29.16604858524941
30.14302684812713
29.16610842868995
30.14230339516572
29.16599830540428
30.14257672255497
29.16604012224387
29.16613094350138
30.14367254951162
29.16620618438816
30.14267670183239
29.16605535719272
30.14300027621586
29.16610451888847
29.16632123246439
30.14346691911739
29.16617520937259
30.14385399570968
29.16623364412139
30.14311457320296
29.16612184844095
29.16594153333384
30.14213492225822
29.16597238479211
30.14176225007227
29.16591535297619
30.14190891739299
29.16593727351693
29.16598371761227
30.14245081171262
29.16602093367895
30.14196164679369
29.16594555301106
30.14213243685193
29.16597209364042
29.166034364339
30.14282035199476
29.16607726559372
30.14219274290822
29.1659814310879
30.1423812145931
29.16601047765902
29.16613788167425
30.14263731456386
29.16604966814185
30.14291891302455
29.16609223728435
30.14244553931064
29.16602034705341
29.32855443405552
30.14181898715096
29.16592111130144
30.14188999191355
29.16593436619439
30.14204333738801
29.16595827804415
29.16592805860421
30.14197002676008
29.16594684481925
30.14209676476924
29.16596659735331
30.14226243531037
29.16599228941698
29.16597019993687
30.14248469210137
29.16602646132243
30.14200740523477
29.16595289105049
30.14231854287159
29.16600094528525
29.16592862659862
30.14213104976016
29.16597256399076
30.14179900053135
29.16591945034204
30.14204911380133
29.16595976181186
30.23787399013657
29.08517478464058
29.08569703239341
30.23331818107892
29.08534833332308
30.14779703505341
29.16683644640513
29.16691259296055
30.14579873766817
29.16652896215432
30.14695682308531
29.16670667558052
30.14509009637823
29.16642106851713
29.16643968673065
30.14391750686959
29.16624340249014
30.14463107377774
29.16635136798742
30.14358418306792
29.16619295748589
29.16619529928253
30.14286994006559
29.16608509321343
30.14331919010663
29.16615291936971
30.14269913295756
29.16605909421152
29.16599019498062
30.14268411722111
29.16605693515816
30.14215186545361
29.16597560679318
30.14253790904084
29.16603460621788
29.1659607404209
30.14200204642237
29.16595224284521
30.14180919220406
29.16592050982392
30.14137553045026
29.16591772061102
29.32855039705204
30.14190317379387
29.16593645409628
30.14197975967141
29.16594864292197
29.97913551082128
29.32856161645379
29.16597657985553
30.14209747958158
29.16596700031701
30.14254796509249
29.16603597951626
30.14245288084701
29.16602144209126
29.16606084264961
30.14334938763132
29.16615741072217
30.14260076174043
29.16604394838807
30.14316842126424
29.16612998730308
29.16619929524403
30.14474725898233
29.16636927504617
30.14341088538953
29.1661666693312
30.14437052432192
29.16631200199009
29.16644631199587
30.14740443218372
29.16677702758653
30.14479289328394
29.16637616242401
30.14652556910131
29.16664119329471
29.16693556053029
30.14731465612723
29.16676295362573
30.15068843984372
29.08529929273987
29.91805329220462
29.58435918823934
29.58518939497162
30.23353064269955
29.08536401501297
29.1659491939651
30.14227972330227
29.16599488161007
30.14207193846654
29.1659630225539
30.14241354224404
29.16601542032863
29.16601338297499
30.14285283813392
29.16608211402059
30.14255509197263
29.16603698115741
30.14309512669422
29.16611887637828
29.1661105212274
30.1437536221069
29.16621845701247
30.14332425359565
29.16615354609444
30.14422279927164
29.16628957768543
29.16626400459459
30.14521749382468
29.16644071003524
30.14461434760142
29.1663490015194
30.14619793198723
29.16659079512293
29.16651655057127
30.14764858423617
29.16681425559937
30.14690797709201
29.1667000655913
30.1498672706638
29.16716203893943
29.16694244569323
30.23348398780443
29.08536116267304
29.91120532406801
29.58136850904835
30.23301736884292
29.08532019625648
29.59014952628169
29.0875543061417
29.59075707302296
29.0866949723274
29.58663482851496
29.08614127689284
29.58491737093559
29.58618217426743
29.0866268137343
29.08729357506651
29.086546064293
29.58564657480553
29.08581015068297
29.91979303062085
29.58605623167316
30.23412993414967
29.08541018572758
29.91501042357399
29.5849626347089
29.31666187874644
29.04731173317945
29.31099045518093
29.04815390079078
29.59903768568193
29.04739319714901
29.08859357381209
29.08775966845809
29.5986252454427
29.0463074838629
29.60246318433638
29.60019847653259
29.08792787755494
29.65633373344283
29.04632876167369
29.60413259410473
29.59245845132629
29.59074996987214
29.58746290772193
29.08682034521787
29.08761085171664
29.08881913935211
29.60043945311806
29.40564976125536
29.65942921249003
29.39853794353298
29.67005735473334
29.32587780136341
29.04953349813142
29.31881609722588
29.04847538641081
29.69432273128189
29.41714554172097
29.4083423963287
29.67402847576689
29.66462380484438
29.40197871382947
29.41259264004466
29.40512586284436
29.65978180416389
29.66926287343925
29.39722630934185
29.31439929882853
29.047085530348
29.30542128722488
29.04698368600204
29.30945376554684
29.3087522120517
29.04781839470693
29.40281184945995
29.65370951898178
29.6528966363865
29.39148601177851
29.39660132189688
29.66581852032046
29.39571306567372
29.31373026553413
29.32221963827746
29.04898398200822
29.31624666542445
29.04716074032363
29.30995323297012
29.04809311603818
29.74568096251284
29.75717739567376
30.01516934313854
29.9208189620708
29.95784158818314
29.87095589506229
29.76145018456904
30.01998503914926
29.76192540000558
29.75133353289898
29.92335180618509
29.83194774431477
29.75631690344878
30.01419659539652
29.91741931061738
29.73943174833221
29.73854866428533
29.75259641933398
30.00994879351881
29.90623914799921
29.90891023289853
29.90988683991881
29.16593133550994
30.14215440984536
29.16597619650227
30.23856569446075
29.08519542901693
29.08575069748649
29.16697936297214
30.14601935511765
29.1665626164879
29.16646693176617
30.14401749126773
29.16625853667243
29.16620791535768
30.14291985582526
29.16609268102212
29.16599436075386
30.14272661859689
29.16606341501636
30.24011290787564
29.08587270109706
29.92967037930435
29.59559360886248
29.65186184438617
29.64180564595727
29.04595481937145
29.32833359561237
29.04990165513968
29.69955963775193
29.42020269408182
29.67769843518237
29.66706709097573
29.40359363459915
29.41516753591699
29.04790812649243
29.31501454285497
29.32428154119548
29.04929162351114
29.7609771955652
29.75725722754651
29.7580119166387
29.75291232128285
29.75550742031857
29.75077930727389
29.7523517788082
29.75168533072628
29.73585741628483
29.76816594628236
29.76764028030797
29.77227102918659
29.76954683543041
29.74231008456053
29.77428034108613
29.76009829078459
29.75799528489145
29.75393983835884
29.76982166095195
29.75399059684592
29.7374588670704
29.72639274478384
29.32853746836854
30.14176847322974
29.16593167113983
29.97912513957369
29.32855807223487
29.9790284036009
29.32852306286022
29.32854003573153
29.97902518395946
29.32852205085335
29.97899084775011
29.3285062573731
29.97894939378218
29.32849168626849
29.32849517361847
29.9790431592848
29.32852950419709
29.97892657093649
29.3284853984202
29.97901091053368
29.32851776778067
29.32852116026996
29.97907369551955
29.32854153734002
29.97893783321451
29.32849171154358
29.97898226407553
29.3285077770105
29.16591680784412
30.14178541814096
29.16593402387848
29.97902607504487
29.32852264625939
29.97907011505921
29.32853842464114
29.81652843062109
29.8164936634519
30.14185075714944
30.14174698069701
29.81648137206069
29.81654666962689
30.14182881637299
29.81665317534837
29.81661948118527
30.14203506542561
30.14191676415122
29.81659479199242
29.81668081200758
30.141996989742
29.81695116618616
29.81690604042727
30.14247195658765
30.14228957382671
29.8168653519599
29.81699778433911
30.14240778879675
29.81739804681048
29.81733960127955
30.14313621189156
30.14284395404685
29.81726816370439
29.81748093278167
30.14302242720404
29.81808498180295
29.81801587584154
30.14417591271654
30.14368877266334
29.81788389653734
29.81824007247042
30.14396397605838
29.8191561056166
29.81909824074292
30.14583708971271
30.14499726941522
29.81884217846524
29.81946026308438
30.14542432595296
29.82080449192611
29.82084208879614
30.14847893253677
30.14701193712214
29.82032784313626
29.82141734516288
30.14765503409639
29.81653989829302
29.81652070898283
30.14176976472119
30.14188240103595
29.81649776397472
29.81656926042042
30.14184320366714
29.816766877533
29.81674292940809
30.14221613826171
30.14206600494893
29.81681197809942
29.81670290315065
30.14215409204853
29.81708519239096
29.81706052148074
30.1426947759198
30.14246829857455
29.81715961852048
29.81699503034077
30.14259240160207
29.8175347546325
29.81751778675924
30.14338312653654
30.14303560316571
29.81766075651047
29.8174075394845
30.14321028747669
29.81816212311222
29.81817514956101
30.14436543098268
30.14382910965116
29.81837849913247
29.81798618771608
30.14406983798564
29.81924268757117
29.81996664544315
30.14588550312119
30.14610997924391
29.8196602949441
29.8194945503836
30.14554324326805
29.32853505896416
29.97899780564327
29.32851175861885
29.97914738963922
29.16592638685328
29.97907604957628
29.32853901154675
29.81659678955947
29.81658529939433
30.14197901710473
30.141861525307
29.81663787812854
29.81654504919444
30.14192282347388
29.81681929442523
29.8168134035993
30.14231104035795
30.1421421482071
29.81688080062959
29.81675821784264
30.14222629273542
29.81710846863627
29.81711448013458
30.14275567719602
30.14251519324166
29.81720382616606
29.81702904547479
30.14262450861863
29.81747665506832
29.81750929398929
30.14333276070498
30.14299379478248
29.81762390127504
29.81737702082778
30.14313066551836
29.81803897091733
29.81842701340497
30.14406713411012
30.14423531170013
29.8182828628737
29.81815980557692
30.14390174149284
29.32854480895443
30.14176970625159
29.16593198218378
29.97901542998758
29.32851796060779
29.97908689231898
29.32854437229008
29.81660622390235
29.81660961049043
30.14199916860034
30.14187659807524
29.81665469676121
29.81656563276197
30.14193220422489
29.8167921586137
29.81680629793153
30.14228556323602
30.1421200988552
29.81686228848717
29.81674223733629
30.14218894037464
29.81701261354
29.81704609333185
30.14262977986717
30.14241273404425
29.8171122858121
29.81695461930187
30.14249258253383
29.81732044730883
29.81754158342288
30.14300183289622
30.14311948494704
29.8174684615812
29.81738282741388
30.14291608713651
29.32847417417167
29.97894301966174
29.32848903195985
29.97895284172269
29.32849173280326
29.97901004104112
29.32851596412892
29.32851071462568
29.97905005946995
29.32853116059857
29.97907539865779
29.32853970978102
30.14132363735531
29.1659268029833
29.81663361769959
29.81654338722211
30.14189885926707
30.14192907396457
29.81657445295077
29.81660182685302
30.14197241798027
29.81678971564821
29.81674025131769
30.14222652847118
30.1420812528572
29.81671417783933
29.81681958894032
30.14218538496302
29.32851052988247
29.97910013419192
29.32854940131073
29.97898078568845
29.32850384963992
29.97907435050102
29.32854022696211
29.81659533934513
29.81655099393848
30.14193699196434
30.14183764432796
29.81653667757396
29.81661002782301
30.14191714777787
29.74089958829704
30.23257224793035
29.82215496987518
30.14890566806765
29.82173245725301
29.7416859768196
30.2318471324096
29.82028464754609
29.82127455129307
30.14731114632842
30.14784673685106
29.82094439319973
29.82054682143485
30.14695656208658
29.81851914322224
29.81899898505192
30.14471335060383
30.14502408476893
29.81886060490489
29.81863262305887
30.14455838596698
29.81756170722674
29.81781793635215
30.14332255458497
30.14350997333732
29.81775293126057
29.81761632260285
30.1432475696443
29.81690267903686
29.816833754784
30.14237492862867
30.14221657922623
29.81681243718108
29.81692732543301
30.14234098288657
29.32850182013282
29.9789621279682
29.32849691224163
29.97907010590425
29.32853858637802
29.9790535029486
29.32853210059333
29.32848308713286
29.97900478103249
29.32851521304537
29.9789446685538
29.32849069555644
29.97903079855748
29.32852443032414
29.81661912612104
29.81669615016238
30.1420404613962
30.14196380750372
29.81662928662766
29.81668480030781
30.14194946389022
29.816839419926
29.81677077640264
30.14214135247633
30.14227409258837
29.81675789011413
29.81685421505066
30.14225373490922
29.81727964494792
29.81717206778054
30.14289712661392
30.14267964021422
29.81730699825952
29.81714879394477
30.14285955035974
29.81801659283085
29.81783851163908
30.14394559055076
30.1435633645538
29.81807187596998
29.81779257835622
30.1438700124758
29.81934549733161
29.81903096551124
30.1458496168967
30.14511623801661
29.8194704485771
29.8189302904096
30.145680245489
29.82197912511
29.82137941563103
30.14966023147274
30.14808498872253
29.82230303083179
29.82112705811097
30.14922621690063
29.91222285143263
30.24172540945516
30.24446777909986
29.74625749294509
30.2398569051824
29.74443252709386
30.2409066637299
29.8167337330916
29.81664331349623
30.14207222616745
30.14201488546727
29.81670776010527
29.8166662444132
30.14210802475603
29.81708888023246
29.81694609814394
30.14253534472588
30.14245446046365
29.81704384813483
29.81698511273921
30.14259729668458
29.81764744372817
29.81741113596013
30.14325068690283
30.14313760188332
29.81756436813388
29.81748199391535
30.14336460395106
29.81856408643364
29.81815123761321
30.14439466049151
30.14424198043858
29.81840031688129
29.81828855178721
30.14461797897894
29.82013244009495
29.81936989746567
30.14627872975863
30.14610075540696
29.81978633659404
29.81965512750006
30.14674653537432
29.74137434600671
29.82141420616459
30.14940667989595
30.14932085462335
29.82210802872249
29.82204677543375
30.15044628858915
29.59597816030026
29.4249461966437
29.42702876223709
29.58898553276489
29.58739834524688
29.59057410616195
29.42069532296824
29.42303465607986
29.42167660969729
29.42186332006111
29.74680128266383
29.74556108272682
30.2427200600509
30.23910875952824
29.7440142440597
29.74922352491208
30.24062482570244
29.13778138254938
29.04780047892491
29.13677871380946
29.04813697862001
29.64603747186334
29.66048116260316
29.65624410533303
29.3992214531377
29.39508432427379
29.38977715885115
29.39260109078298
29.60311687255189
29.59926493117056
29.43235231838048
29.42947356037163
29.25609691196341
29.25585913686732
29.08725803825302
29.08787839008363
29.25513702204674
29.25697557297424
29.08758181082207
29.14439607057367
29.05090203318316
29.1459937407739
29.05036334485357
29.7027751095532
29.60668709545103
29.6966206893352
29.61237575706411
29.68028558352206
29.58344775178896
29.59169250396943
29.67652922530096
29.58827919975315
29.67121420120062
29.58637307402007
29.13394929941781
29.04667542610579
29.13288071652922
29.04664853041867
29.13334202591703
29.13342269089151
29.0468530692184
29.65076756383005
29.65113237287856
29.56741091657817
29.5631089034856
29.5650011476942
29.56533663627603
29.65342771090378
29.13697137718567
29.13652959020463
29.04808663884004
29.04752950376442
29.13596602851083
29.13762713789301
29.04786672187807
29.88018467621958
29.79204340219243
29.8734524578437
29.7855443575191
29.94184163549636
30.02761056249915
30.02065408950571
29.93116270804498
30.02306187517611
29.93740954390203
30.01666603322345
29.73619797631678
29.82139159117055
29.8189032574743
29.73659438273478
29.82181540980986
29.8245138697112
29.73912515607855
29.32851839726235
29.97912424347717
29.32855727354335
29.81663356963042
29.81656586625662
30.14195498456937
30.14188117223448
29.81662339996157
29.81656906664744
30.14196968525903
29.74269789884406
30.2329196805627
29.74034389436925
30.23189464547298
29.74194571189064
29.74085795173965
30.23360782664815
29.82103935119055
29.82159404870679
30.14765329453879
30.14913448500416
29.8207999849822
29.82190324022687
30.14797671164698
29.81883932728303
29.81913050457487
30.14485988538212
30.1455582502814
29.81873998217838
29.81925270992073
30.14499542198813
29.81771372651347
29.81787873026502
30.14339243931849
30.14375878986883
29.81766723638884
29.81793440331018
30.14345623687255
29.81697046861306
29.81685331837922
30.14240616798334
30.14229716044121
29.81695000554256
29.81687091489598
30.14243435698656
29.49122931005481
29.49120828165371
29.1659283241445
29.16591414123817
29.49119681183003
29.49123938510646
29.16592335837091
29.81658442846424
30.14193028275449
29.8166689326665
30.14198741037632
29.81664605918486
29.81660469044416
30.14190300162529
29.49126239769818
29.16594114839168
29.49131364554428
29.16594999797469
29.49129969596137
29.4912745200446
29.16593652326708
29.81656263226161
30.14195526982152
29.8165985110359
30.14184790380104
29.81654161749396
29.81662244816146
30.14187461481166
29.49125038758686
29.16594478552329
29.49127053925432
29.16592651663106
29.4912371113114
29.49128536324188
29.16593121606023
29.49130402133599
29.49128350374576
29.16595720003982
29.16593844579015
29.4912688151577
29.49132081109733
29.16595121498474
29.81671720644809
30.14212844890774
29.81682328528392
30.14218249085733
29.81678766273381
29.81674850051982
30.14208531785771
29.49134296494018
29.16597162084602
29.49140762082433
29.16597989065635
29.49138589195229
29.49136204887292
29.1659649228397
29.81662519099474
30.14188311577539
29.8165455948727
30.14192112898277
29.81656899943324
29.81659753690463
30.14195875691458
29.49128713555985
29.16593202158562
29.49123969462194
29.1659389373361
29.49125477656187
29.49127008656908
29.16594504460807
29.81668557939267
30.14213297067161
30.14199822911525
29.81671569619487
29.81675171262099
29.8166538887548
30.14204179558671
29.49132367471343
29.16597222187742
29.1659512630277
29.49134196031261
29.49136395442952
29.49130428662126
29.165958116198
29.49148552165374
29.49145804560496
29.16602421142368
29.16599631774256
29.49143323438249
29.49151393967348
29.16601439239117
29.81704611489454
30.1426122237184
29.81721311397152
30.1426833154631
29.81715134599408
29.81709969193405
30.14253851571946
29.49154336661733
29.16604556345287
29.49164511186896
29.16605634284264
29.49160747083211
29.49157601947098
29.16603432212286
29.81690442101798
30.14223317816857
29.8167835123355
30.14227939717088
29.81682440475477
29.81685791918085
30.14234343110636
29.49145702130088
29.16598763348799
29.49138330624644
29.1659946854869
29.49140825865841
29.49142866146883
29.16600452552183
29.81699261127021
30.14259885401977
30.14239192757027
29.81702937854584
29.81708993807194
29.81693960880684
30.14246488638799
29.49151075547493
29.16604347965316
29.16601190859192
29.49153314045829
29.4915700485361
29.49147844432234
29.16602307494084
29.49175776513777
29.49172216873727
29.1661250161783
29.16608072351637
29.4916786340249
29.49180828434246
29.16610777021533
29.81754266782925
30.14335330502951
29.81781657458343
30.14344215734335
29.81770391228496
29.81763914675136
30.14322098527031
29.49184589438629
29.16615786848262
29.4920129011763
29.16617129674026
29.49194418567587
29.49190471509503
29.16613783030385
29.81731647360506
30.14274680528911
29.81712812328044
30.14280094090823
29.8171974866144
29.81723683467776
30.14291038396803
29.49170805288072
29.1660659631441
29.49159329741969
29.16607416253229
29.49163556524476
29.49165952387159
29.16609077687447
29.8174482568085
30.14329193332777
30.14296555947143
29.8174886219131
29.81759434383321
29.81735660360158
30.14309141862453
29.49178834720862
29.16614855364666
29.16609912499728
29.4918129334313
29.49187737822091
29.49173249093596
29.16611820245075
29.49217664709026
29.49213448930757
29.16628239595821
29.16620861220274
29.49205394838915
29.49227135539618
29.16625027255138
29.81830978093247
30.14452065948472
29.81877722117709
30.14461431636924
29.81856115297452
29.81849257870417
30.14427123282032
29.49231390702867
29.16633468763275
29.49259968804799
29.16634888738474
29.49246751236412
29.49242562497378
29.16629682891855
29.81793624029514
30.14351415405181
29.8176341810769
30.1435666533037
29.81775639819635
29.81779466536032
30.14376050766595
29.49208586409232
29.16618217794739
29.49190164936557
29.16619011319026
29.49197617441136