/*--------------------------------*- C++ -*----------------------------------*\
  =========                 |
  \\      /  F ield         | OpenFOAM: The Open Source CFD Toolbox
   \\    /   O peration     | Website:  https://openfoam.org
    \\  /    A nd           | Version:  7
     \\/     M anipulation  |
\*---------------------------------------------------------------------------*/
FoamFile
{
    version     2.0;
    format      ascii;
    class       volVectorField;
    location    "0";
    object      U;
}
// * * * * * * * * * * * * * * * * * * * * * * * * * * * * * * * * * * * * * //

dimensions      [0 1 -1 0 0 0 0];

internalField   nonuniform List<vector> 
12679
(
(1.000169587432703 -5.255839381875745e-07 4.296484111715294e-06)
(1.000170980734355 -1.580217920329472e-06 4.400399409278929e-06)
(1.000173796214674 -2.645334580140265e-06 4.613314622541896e-06)
(1.000178091650037 -3.728158875868194e-06 4.945670256556314e-06)
(1.000183953584246 -4.836106981126391e-06 5.413797912532005e-06)
(1.000191496656908 -5.976506718147738e-06 6.040695837074097e-06)
(1.000200861733485 -7.155892767815134e-06 6.856985803856143e-06)
(1.000212211808508 -8.37865829800682e-06 7.901920604383061e-06)
(1.000225724161766 -9.64478284045262e-06 9.224183263004126e-06)
(1.000241576637497 -1.094631274299232e-05 1.088200839371289e-05)
(1.000259925252106 -1.226229429149735e-05 1.294184768176982e-05)
(1.000165329102705 -4.747706707603073e-07 4.081824229005984e-06)
(1.000166532400181 -1.425482635115476e-06 4.173894388887858e-06)
(1.000168958326412 -2.37969084714752e-06 4.361914134221447e-06)
(1.000172645178158 -3.339636813305149e-06 4.653782791126895e-06)
(1.000177649340471 -4.307294423013311e-06 5.061684191787162e-06)
(1.000184043590903 -5.283981835751463e-06 5.602436411943163e-06)
(1.000191914087263 -6.269661089427165e-06 6.297851264282872e-06)
(1.000201355310875 -7.261799637661034e-06 7.174968830915188e-06)
(1.000212461977495 -8.253658701724903e-06 8.265941340994213e-06)
(1.000225316667442 -9.231894113375595e-06 9.607208055219506e-06)
(1.000239971756245 -1.017344269748789e-05 1.123743002635089e-05)
(1.000161398816589 -4.302255605387494e-07 3.788251242954076e-06)
(1.000162436703452 -1.290124805639628e-06 3.868196632548397e-06)
(1.000164524580235 -2.148307303093615e-06 4.030963753717454e-06)
(1.000167686114966 -3.003397029706817e-06 4.282360728669201e-06)
(1.000171955357758 -3.853572873228949e-06 4.631220607009778e-06)
(1.00017737469414 -4.696190822338612e-06 5.089492884853081e-06)
(1.000183991595178 -5.527198479670124e-06 5.67226429128932e-06)
(1.000191853700889 -6.340279292235877e-06 6.397598033277316e-06)
(1.000201001659262 -7.125677929729931e-06 7.286024360212402e-06)
(1.000211459080036 -7.868699461081423e-06 8.359445616126377e-06)
(1.000223219016986 -8.547963791532107e-06 9.639144870523096e-06)
(1.000157855973554 -3.919700890868668e-07 3.424715067070511e-06)
(1.00015875281574 -1.174101822408086e-06 3.492651191850664e-06)
(1.000160553269678 -1.950735177356698e-06 3.630597255070683e-06)
(1.000163270297072 -2.717942216978845e-06 3.842706028411282e-06)
(1.000166921825965 -3.471336122521362e-06 4.135204105492602e-06)
(1.000171528735346 -4.205758020377707e-06 4.516343590513228e-06)
(1.000177111841521 -4.914837900775348e-06 4.99625631887358e-06)
(1.000183687620638 -5.590405282296186e-06 5.586630327337107e-06)
(1.000191262372983 -6.221745133678087e-06 6.300097549411572e-06)
(1.000199824559349 -6.794733587603545e-06 7.149192011442478e-06)
(1.000209335168496 -7.29095430349918e-06 8.144718632702364e-06)
(1.000154747776752 -3.59863146478895e-07 3.000448441578894e-06)
(1.000155527078344 -1.076889683999518e-06 3.056735664626287e-06)
(1.000157088614411 -1.785750508367151e-06 3.170763417698039e-06)
(1.000159437706487 -2.480768504177482e-06 3.345417606366226e-06)
(1.00016258093422 -3.155876829520088e-06 3.584963445779938e-06)
(1.000166524337213 -3.804386744905862e-06 3.894935020221226e-06)
(1.000171270836485 -4.418687216291305e-06 4.281929102451177e-06)
(1.000176816745916 -4.989872304304947e-06 4.753249869722637e-06)
(1.000183147255131 -5.507310470558632e-06 5.316337089449866e-06)
(1.000190230822965 -5.958199054301199e-06 5.977901551987955e-06)
(1.000198012548186 -6.327189476407473e-06 6.742696504263561e-06)
(1.000152110799953 -3.336726088282048e-07 2.524808665567067e-06)
(1.000152794864444 -9.977041690928909e-07 2.569927843985719e-06)
(1.000154163238786 -1.651743166079611e-06 2.661153592670272e-06)
(1.000156215934613 -2.288949331102007e-06 2.800430232202909e-06)
(1.000158951750435 -2.90219308715946e-06 2.990589695441465e-06)
(1.000162366753313 -3.483900731177553e-06 3.235226411032638e-06)
(1.000166452173303 -4.025868948832059e-06 3.538491075775678e-06)
(1.000171191667013 -4.519054155890806e-06 3.904770330424601e-06)
(1.000176557934069 -4.953355891644873e-06 4.338214366201149e-06)
(1.000182508729846 -5.317432763939237e-06 4.842075458698288e-06)
(1.000188982423449 -5.598613816089551e-06 5.417832156602231e-06)
(1.0001499725993 -3.131325709159598e-07 2.007185773687817e-06)
(1.000150582427664 -9.356752982859917e-07 2.041641194567157e-06)
(1.000151800505505 -1.547015893092341e-06 2.11119747345368e-06)
(1.00015362326718 -2.139566829979971e-06 2.217115154273776e-06)
(1.000156044337674 -2.705552216544934e-06 2.361203782321349e-06)
(1.00015905328428 -3.236917455945213e-06 2.545709047083263e-06)
(1.000162633935287 -3.725231012842248e-06 2.773137750243258e-06)
(1.000166762272589 -4.161587465500883e-06 3.046001520635299e-06)
(1.000171403936376 -4.53653015826648e-06 3.366459609538799e-06)
(1.000176511432344 -4.840023486014847e-06 3.735845113965021e-06)
(1.000182021209421 -5.061517794749526e-06 4.154070549746464e-06)
(1.00014835322029 -2.979866404088909e-07 1.456956609294996e-06)
(1.000148908588936 -8.899777687728114e-07 1.481204218022191e-06)
(1.000150016564293 -1.470002280429518e-06 1.530096341192763e-06)
(1.000151671276885 -2.030014226781427e-06 1.604402344393329e-06)
(1.000153863060342 -2.561863696817663e-06 1.705211756654195e-06)
(1.000156577424639 -3.057254834676292e-06 1.833847756766367e-06)
(1.000159793708465 -3.507708885452186e-06 1.99173762201082e-06)
(1.000163483445613 -3.904542227410207e-06 2.180229882282798e-06)
(1.000167608510091 -4.238875025375479e-06 2.400349047610953e-06)
(1.000172119147073 -4.50169286258601e-06 2.652482539574198e-06)
(1.00017695205309 -4.683989652949646e-06 2.936003440368078e-06)
(1.000147266495132 -2.880189767206391e-07 8.834681291814177e-07)
(1.00014778616329 -8.599234325129822e-07 8.978653551971245e-07)
(1.000148822035125 -1.41941783089273e-06 9.268727876311019e-07)
(1.000150366880872 -1.95819729150033e-06 9.709008488279561e-07)
(1.000152409110769 -2.467912323040764e-06 1.030524383936683e-06)
(1.000154931902356 -2.940158520891729e-06 1.106429036273805e-06)
(1.000157912079071 -3.366478095596625e-06 1.199332577825497e-06)
(1.000161318789134 -3.738382775801244e-06 1.309876312152734e-06)
(1.000165112060805 -4.047411337273412e-06 1.438482910303947e-06)
(1.000169241345186 -4.285238578786471e-06 1.585179469075771e-06)
(1.000173644199121 -4.443855039089814e-06 1.749389976630361e-06)
(1.000146721061657 -2.830752287745802e-07 2.960376924995101e-07)
(1.000147223066412 -8.450229445582648e-07 3.008109676482163e-07)
(1.000148223285558 -1.394358372727535e-06 3.10424371255905e-07)
(1.000149713860807 -1.922660787884421e-06 3.25006304865211e-07)
(1.000151682319948 -2.421495217957585e-06 3.44735479338414e-07)
(1.000154110782568 -2.882417775324173e-06 3.698228224210568e-07)
(1.000156974952241 -3.296995636694297e-06 4.004851648699567e-07)
(1.000160242949812 -3.656850811401763e-06 4.369093351763134e-07)
(1.000163874068043 -3.953739617002871e-06 4.792056822748061e-07)
(1.00016781755858 -4.179681975299432e-06 5.273509974603e-07)
(1.000172011596814 -4.3271553473609e-06 5.811224055004817e-07)
(1.000182028734364 -4.777023428608403e-06 3.248846578670942e-06)
(1.000178245304402 -4.515836054456785e-06 1.929709139067502e-06)
(1.000176382603229 -4.389366253193921e-06 6.400265589709408e-07)
(1.000280869797316 -1.355203182737939e-05 1.547440994379437e-05)
(1.000256424323202 -1.104187985192738e-05 1.319345819261736e-05)
(1.000236226688333 -9.133661100425511e-06 1.114253786067223e-05)
(1.000219716266376 -7.686996799349826e-06 9.293387903172496e-06)
(1.000206406811427 -6.59622289771387e-06 7.611885470856478e-06)
(1.000195893405907 -5.782994164649069e-06 6.064103287129628e-06)
(1.000187850879552 -5.19016046579521e-06 4.618930511793734e-06)
(1.000310173484211 -1.684670780408002e-05 1.7995472088842e-05)
(1.000340485998167 -1.873351663384756e-05 2.202432088118856e-05)
(1.000374115091412 -2.046195704355189e-05 2.692194205362787e-05)
(1.000304109919623 -1.473367736340776e-05 1.850810791059632e-05)
(1.000329349634938 -1.570962288143618e-05 2.20619837474103e-05)
(1.000274356434862 -1.177652013732115e-05 1.547456832827472e-05)
(1.000293479182565 -1.231182145168245e-05 1.807147458778305e-05)
(1.000250182212786 -9.582574585970111e-06 1.285664474609649e-05)
(1.000264829348201 -9.851523982692829e-06 1.47638926789389e-05)
(1.000230699381 -7.952708395056983e-06 1.05783930790513e-05)
(1.000242066564057 -8.059943931043796e-06 1.198132604395674e-05)
(1.000215178787113 -6.744534463981076e-06 8.568929396764352e-06)
(1.00022414623911 -6.754065898689908e-06 9.597437776144574e-06)
(1.00020303743144 -5.856382502963614e-06 6.766518344756065e-06)
(1.000210262278727 -5.807438065325261e-06 7.511698065122107e-06)
(1.000193821394234 -5.21624142520614e-06 5.119022361474511e-06)
(1.000199804007427 -5.132819801234123e-06 5.644178449492952e-06)
(1.000187189118881 -4.774015755774019e-06 3.58284742813851e-06)
(1.000192321507281 -4.670812850055612e-06 3.930941296722785e-06)
(1.000182897173025 -4.496163076186274e-06 2.121255031760709e-06)
(1.000187499133984 -4.382315083423063e-06 2.31988415922842e-06)
(1.000180789343606 -4.362119739515414e-06 7.024411214216092e-07)
(1.000185136548694 -4.24364718660864e-06 7.670022433171213e-07)
(1.000411075129427 -2.180177423163123e-05 3.291837533511161e-05)
(1.000450459949082 -2.16776236374308e-05 4.051369628727602e-05)
(1.000490194715049 -2.21620121083518e-05 4.127316927620876e-05)
(1.000530304380734 -2.269412167251656e-05 5.328925601858111e-05)
(1.000570319372251 -1.986188856898421e-05 6.346649299380889e-05)
(1.000356488907481 -1.635143215138829e-05 2.618047693462116e-05)
(1.000384835986402 -1.644783087965117e-05 3.074758526603585e-05)
(1.000413370123425 -1.615038930637442e-05 3.484196588699663e-05)
(1.00044115107351 -1.528939574872789e-05 4.034144271836098e-05)
(1.000466970379333 -1.312702981876788e-05 4.587765390512912e-05)
(1.000313667100563 -1.257531108318265e-05 2.098926143212431e-05)
(1.000334392002983 -1.247677456380391e-05 2.414818520690538e-05)
(1.000354951928863 -1.197073495877453e-05 2.737490780875773e-05)
(1.000374530828737 -1.097122964075116e-05 3.077327328057639e-05)
(1.00039214576673 -9.303694453344057e-06 3.404984495816879e-05)
(1.000406419415022 -6.926465674459542e-06 3.665270527784179e-05)
(1.000280047102209 -9.896318310513877e-06 1.685927427445846e-05)
(1.0002954284226 -9.664543521628474e-06 1.908871600071866e-05)
(1.000310460073988 -9.112749959262608e-06 2.13701592449439e-05)
(1.000324540368611 -8.198803172278707e-06 2.363125812651102e-05)
(1.000336987138526 -6.881479343393504e-06 2.57263632135737e-05)
(1.000347041666727 -5.178389271905243e-06 2.74244367259729e-05)
(1.000253711773818 -7.981176417041344e-06 1.349427603238004e-05)
(1.000265320809734 -7.684991993140127e-06 1.507706519244291e-05)
(1.000276514771819 -7.14532390995801e-06 1.667341929064105e-05)
(1.000286862618825 -6.343760222513001e-06 1.821501392653362e-05)
(1.000295899358573 -5.274310592885674e-06 1.961170529274817e-05)
(1.000303155436222 -3.959312400555211e-06 2.07520741420953e-05)
(1.000233220236738 -6.607804191716225e-06 1.068939181365766e-05)
(1.000242157099638 -6.287431634288288e-06 1.181468173734824e-05)
(1.000250674482642 -5.779397824367901e-06 1.293317099749246e-05)
(1.000258461937002 -5.07754697918685e-06 1.399579974827772e-05)
(1.000265197102886 -4.186433694251969e-06 1.494500737950028e-05)
(1.000270569076608 -3.126199770933425e-06 1.571857669196439e-05)
(1.000217494585028 -5.625862316482555e-06 8.292725878952485e-06)
(1.000224542938741 -5.301490298261167e-06 9.087530757435956e-06)
(1.000231193243677 -4.828385364345107e-06 9.867929531006901e-06)
(1.000237217318731 -4.206644653962964e-06 1.060051491675709e-05)
(1.000242385244254 -3.44425449856787e-06 1.124822196423228e-05)
(1.000246481418603 -2.558789688976496e-06 1.177340680816932e-05)
(1.000205737952815 -4.933842722641992e-06 6.189017820278705e-06)
(1.000211469345663 -4.614138376360605e-06 6.737957791491139e-06)
(1.000216831225322 -4.172198534640294e-06 7.271784302348439e-06)
(1.000221650409223 -3.611302270429805e-06 7.768388040077446e-06)
(1.000225756632385 -2.940504578361138e-06 8.204053380851683e-06)
(1.000228993558893 -2.175267814915206e-06 8.555449204635146e-06)
(1.000197374404949 -4.463972175516122e-06 4.289357039363141e-06)
(1.000202219595 -4.151298800483653e-06 4.647800951208026e-06)
(1.000206721411318 -3.733789130751168e-06 4.993907442311567e-06)
(1.00021074226636 -3.216322189575608e-06 5.31376669735953e-06)
(1.00021414957216 -2.608182198443082e-06 5.592782664925325e-06)
(1.000216823623979 -1.923271357839247e-06 5.816862256078011e-06)
(1.000192005717156 -4.172343457791212e-06 2.523379948852879e-06)
(1.000196304658896 -3.865714875094122e-06 2.72589526812762e-06)
(1.000200279339917 -3.464762394387137e-06 2.920526173643002e-06)
(1.000203813449414 -2.975134452772818e-06 3.099622205715778e-06)
(1.000206796555648 -2.406080725411889e-06 3.255264740028495e-06)
(1.000209130203585 -1.770486803698944e-06 3.379893605715181e-06)
(1.000189381701539 -4.032678323164342e-06 8.329802101498562e-07)
(1.000193420173344 -3.729421857339712e-06 8.984801121380768e-07)
(1.000197144347426 -3.336789816734389e-06 9.612836370031485e-07)
(1.000200447862004 -2.86073909415819e-06 1.018950846158584e-06)
(1.000203230547664 -2.310457999168756e-06 1.068973056777881e-06)
(1.000205403715223 -1.698332898441964e-06 1.108968098539669e-06)
(1.000261798822414 -1.432035589908412e-05 4.380994172565171e-06)
(1.000290081451592 -1.865995643580189e-05 5.462501345693827e-06)
(1.000327586844826 -2.424821473881675e-05 7.043473267155916e-06)
(1.000377350836326 -3.167208922533349e-05 9.387192490196752e-06)
(1.000443760135394 -4.184508557430812e-05 1.293035275573321e-05)
(1.000533125536097 -5.643835661103571e-05 1.841220654099747e-05)
(1.000200745716241 -9.831295473561266e-07 3.060954872374772e-06)
(1.00020388834392 -2.987849121814426e-06 3.17676211076376e-06)
(1.000210345022301 -5.112232911190963e-06 3.420188936087303e-06)
(1.000220475238318 -7.45094581357358e-06 3.81681968484473e-06)
(1.000234862204331 -1.012325162829529e-05 4.410374066236574e-06)
(1.00025437274427 -1.328785356695121e-05 5.270485879441639e-06)
(1.000280250436764 -1.716401538958768e-05 6.505761191425696e-06)
(1.000314256771188 -2.206340675433722e-05 8.285366942232309e-06)
(1.000358884693643 -2.844263222845075e-05 1.087486812817984e-05)
(1.000417689587299 -3.700780862269778e-05 1.469795617321452e-05)
(1.000495851070669 -4.89869153666679e-05 2.046348381597459e-05)
(1.000196970170644 -9.192878499960939e-07 3.546843932844432e-06)
(1.000199865889161 -2.790004654764232e-06 3.674605327550709e-06)
(1.000205803172226 -4.760418750832774e-06 3.942298383166496e-06)
(1.000215086353353 -6.908303949360697e-06 4.376121139306255e-06)
(1.000228205068122 -9.329845021587317e-06 5.020395023021529e-06)
(1.000245878532802 -1.215013351951486e-05 5.944759058190868e-06)
(1.000269122839988 -1.55374010539645e-05 7.256042827099056e-06)
(1.000299349975196 -1.97230682691499e-05 9.117638416574718e-06)
(1.000338511798073 -2.503047894712889e-05 1.17817663214442e-05)
(1.000389307582464 -3.191401932482401e-05 1.564705729915077e-05)
(1.000455465745097 -4.099429480014442e-05 2.137828493686258e-05)
(1.000192753081659 -8.508052457313706e-07 3.932956988017937e-06)
(1.000195384716253 -2.578271297701181e-06 4.066870723181435e-06)
(1.000200768349312 -4.385662961849916e-06 4.346464052183251e-06)
(1.000209153722745 -6.334345723380493e-06 4.796893643244839e-06)
(1.000220938825045 -8.498590927388487e-06 5.460251067660443e-06)
(1.000236700352925 -1.097236119952526e-05 6.401682585139314e-06)
(1.000257238497352 -1.387781891190268e-05 7.719263040015405e-06)
(1.000283639817513 -1.737605027572133e-05 9.55963747337663e-06)
(1.000317362609929 -2.168001981242293e-05 1.214285546985009e-05)
(1.000360347552632 -2.706855719900036e-05 1.580203125880877e-05)
(1.000415145958287 -3.390424938946288e-05 2.104470853613299e-05)
(1.000188228701441 -7.805914820573497e-07 4.213778558580238e-06)
(1.000190590536836 -2.361729482459366e-06 4.348591855838009e-06)
(1.000195410599965 -4.004323583172459e-06 4.62900784157387e-06)
(1.000202887647313 -5.754738824163429e-06 5.077924819051539e-06)
(1.000213335085493 -7.667742188335351e-06 5.73318919313473e-06)
(1.000227200217109 -9.810442551650815e-06 6.65238877289476e-06)
(1.000245091271828 -1.226666206183626e-05 7.920339598656815e-06)
(1.000267812897819 -1.514149039227258e-05 9.660418016101164e-06)
(1.000296409793021 -1.856514252659339e-05 1.205139869948801e-05)
(1.000332215141225 -2.269424293302137e-05 1.535185649754954e-05)
(1.000376893520061 -2.770907325667312e-05 1.993409652364123e-05)
(1.000183529805834 -7.111771902148345e-07 4.387668372219682e-06)
(1.000185626032553 -2.148212398401843e-06 4.518965655330935e-06)
(1.000189893393688 -3.630282388662641e-06 4.791014469335004e-06)
(1.000196485306706 -5.19072932115411e-06 5.223720744288762e-06)
(1.000205640936531 -6.867896120299902e-06 5.84955376271874e-06)
(1.000217696061855 -8.707098280759666e-06 6.71701384142922e-06)
(1.000233097340715 -1.076236005166098e-05 7.895834620178077e-06)
(1.000252419149005 -1.309745335123866e-05 9.484428887190231e-06)
(1.000276380853232 -1.578531567012262e-05 1.162013937790082e-05)
(1.000305859817239 -1.890433445205878e-05 1.449265482785844e-05)
(1.000341891172985 -2.252998106008598e-05 1.83603666874814e-05)
(1.000178782223623 -6.446050133783812e-07 4.456265187044534e-06)
(1.000180624951446 -1.943978171484771e-06 4.58060446381741e-06)
(1.000184366848352 -3.274398664853477e-06 4.837242725510325e-06)
(1.000190122682396 -4.658394552737024e-06 5.24280130726058e-06)
(1.000198069194542 -6.121117200151588e-06 5.824021165103849e-06)
(1.000208450185971 -7.691080236140043e-06 6.620080811701661e-06)
(1.000221582371225 -9.40041076223739e-06 7.685911220006658e-06)
(1.00023786067669 -1.128417475394497e-05 9.096634354776829e-06)
(1.000257760540462 -1.337805137666629e-05 1.095313803593958e-05)
(1.000281832942494 -1.571329322037048e-05 1.338849122254465e-05)
(1.000310685211896 -1.830777655888714e-05 1.657438152858192e-05)
(1.000174100891008 -5.823972250791358e-07 4.423810127951431e-06)
(1.000175708038016 -1.753628518499129e-06 4.538727028803423e-06)
(1.000178963474532 -2.944435655729902e-06 4.775026921397783e-06)
(1.00018395021776 -4.168708791779262e-06 5.146099251063621e-06)
(1.000385640396958 -2.672308112472503e-05 2.35697688834522e-05)
(1.000344937295493 -2.1152885315647e-05 2.072654050283557e-05)
(1.000190794444031 -5.441428061952089e-06 5.673185508780531e-06)
(1.000199666912174 -6.778712155193539e-06 6.38679876989318e-06)
(1.0007135890546 -0.0001249041949413446 4.189898995541498e-05)
(1.000601414245035 -6.584510618553164e-05 3.065110003148121e-05)
(1.000541958187575 -5.302712118296634e-05 3.02096313442529e-05)
(1.00048502889666 -4.273467067718554e-05 2.862914171171044e-05)
(1.000432457948663 -3.381304395685654e-05 2.633390868018186e-05)
(1.0008033042894 -0.0001483663608049765 5.430019357931626e-05)
(1.000811886713391 -0.0001407484031939181 7.238165167493561e-05)
(1.000714282821739 -0.0001118398070408451 6.880266396729184e-05)
(1.000573011573806 -5.401987608165508e-05 4.038854172076505e-05)
(1.000500390648777 -4.11018928541753e-05 3.528031662592094e-05)
(1.00021078376999 -8.197358170689764e-06 7.328635798853548e-06)
(1.000437674916555 -3.145961016152477e-05 3.049629064194267e-05)
(1.000384636895028 -2.416183430442098e-05 2.604289463148925e-05)
(1.000429809290394 -2.728206168084121e-05 3.277391727333435e-05)
(1.000224405458298 -9.713539862861336e-06 8.55391959299812e-06)
(1.000240831629982 -1.13401781987278e-05 1.013396203023794e-05)
(1.000260388857929 -1.308233226255663e-05 1.215845472691958e-05)
(1.000283406397803 -1.492985858947419e-05 1.473656387269524e-05)
(1.000480890981961 -3.078955935693713e-05 4.148698259740625e-05)
(1.000537345138059 -4.290681694149554e-05 4.715623973471647e-05)
(0.9993118295958481 -0.001313667326503899 0.001262627616671765)
(1.000714664410684 -5.574965966085433e-05 0.0001247306915427848)
(1.000693049202778 -4.170365534680978e-05 0.0001069021706072189)
(1.000498639147263 -3.686776477340954e-05 3.960446700664897e-05)
(1.000569986655462 -4.426606222107407e-05 5.164871704172498e-05)
(1.000709588790403 -7.159087020456446e-05 0.0001128438860446551)
(1.000757439926086 -8.000641306734599e-05 0.0001277499276753428)
(1.000861322596711 -8.322799603142957e-05 0.0001602664368569682)
(1.000859072357424 -8.00305143769656e-05 0.0001713716589126207)
(1.001006863886492 -0.0002470131961217345 9.641587155361193e-05)
(1.001334763688236 -0.0003698287498142326 0.0001610238511008145)
(1.001822587871621 -0.0005661101636715979 0.000284421726249982)
(1.002568236180048 -0.0008913933929915638 0.000529568232869934)
(1.00372516148048 -0.001428362371854199 0.001038355008235074)
(1.005506526038588 -0.002259143142499664 0.002117597463573066)
(1.000899756889244 -0.0001549933868265865 0.0001195015959758821)
(1.00114956259472 -0.0002804251132317917 0.0001605392049356675)
(1.001509877431672 -0.0004013345207717891 0.0002652123865768739)
(1.002021531295766 -0.0005774977159111614 0.0004504490780290785)
(1.002742861456498 -0.0008206026691737375 0.0007805435586362102)
(1.004633469539797 -0.00130283667742333 0.00199912011548034)
(1.000790071346114 -0.0001315315270414576 8.496921891743766e-05)
(1.000982345569853 -0.0001457806494630549 0.0001457619179040291)
(1.001230379745048 -0.0002754776851786872 0.0002257154011529037)
(1.001571097074134 -0.0003657684369926786 0.000352453833426522)
(1.002012858211361 -0.0004706347351320211 0.000551105669888615)
(1.003018005531721 -0.0006088647347721568 0.001134915958238097)
(1.000748951456542 -0.0001083323002232251 8.908274418756727e-05)
(1.000822496456252 -0.0001233640784749898 0.0001075828604351951)
(1.000995652292797 -0.0001849076653043219 0.0001808660214960406)
(1.001222409000523 -0.0002317553504710285 0.0002654636221224342)
(1.001494215730456 -0.0002753356223851776 0.0003822981759351311)
(1.002049493148292 -0.000307238707050156 0.0006735731478845174)
(1.000582490590577 -4.970403424406337e-05 4.772345741443314e-05)
(1.000634642583298 -8.383663691964451e-05 8.834898384730815e-05)
(1.000732746597595 -8.233831400433189e-05 0.000107374567953954)
(1.000849320354874 -0.0001014520463269385 0.0001460400294628908)
(1.000939658108603 -0.0001228801786272768 0.0001820299347320283)
(1.001146390598139 -0.0001086347637176167 0.0003008645187001012)
(1.000604290263732 -1.248936243634185e-05 7.125843606544465e-05)
(1.000487918038798 -9.219677330537578e-06 5.028070820955543e-05)
(1.000731085881012 -2.477522501085588e-05 0.0001332833785314985)
(1.000924000837207 -5.462828816467937e-05 0.0002186714377233579)
(1.006807477821327 -0.001744887662875087 0.003761082972397303)
(1.005956040842178 -0.001345246815740936 0.003129863405693606)
(1.003630835440838 -0.0005658039155967668 0.00157193988608102)
(1.002355590747004 -0.0002653947418395659 0.0008616550328923111)
(1.001252765698031 -8.664781459527879e-05 0.0003532038785249682)
(1.000208205397112 -1.116463098432444e-06 1.124099607162769e-06)
(1.000211865580581 -3.402464182667475e-06 1.170814876723922e-06)
(1.000219416392942 -5.854636663461977e-06 1.269665673070748e-06)
(1.000231345917488 -8.608229946226065e-06 1.432559953779488e-06)
(1.000248459363463 -1.184016899694115e-05 1.680346782622542e-06)
(1.000271982473153 -1.579720193646922e-05 2.047435503471281e-06)
(1.000303730423237 -2.08398442277081e-05 2.590196625309658e-06)
(1.000346380797854 -2.751524034333445e-05 3.402419456082242e-06)
(1.000403920604647 -3.668425244372322e-05 4.644419160853396e-06)
(1.000482397885365 -4.975069394719118e-05 6.598662168392142e-06)
(1.000591216270317 -6.907152231868432e-05 9.778369793797626e-06)
(1.00020646917498 -1.084562292586837e-06 1.833386047824668e-06)
(1.000210005321902 -3.303089450817474e-06 1.907954909960637e-06)
(1.000217293245158 -5.676056254674994e-06 2.065492214228238e-06)
(1.000228788566766 -8.328299145365045e-06 2.324383594316704e-06)
(1.00024523991785 -1.142161930392025e-05 2.716614942772811e-06)
(1.000267780255369 -1.51790161006084e-05 3.294478474841119e-06)
(1.000298073999645 -1.992158302387169e-05 4.142535254192203e-06)
(1.000338550438713 -2.612826544000806e-05 5.399197720707301e-06)
(1.000392777596888 -3.453975741077688e-05 7.296904799165285e-06)
(1.000466083697822 -4.635514460334639e-05 1.023852772426035e-05)
(1.000566695056058 -6.359342720677098e-05 1.492990598613555e-05)
(1.000203950753399 -1.039231061071128e-06 2.485081572157252e-06)
(1.000207310861142 -3.162068508533791e-06 2.583016635655147e-06)
(1.000214226407457 -5.423335526411255e-06 2.789451545645797e-06)
(1.000225108740936 -7.933852831414377e-06 3.127397797101388e-06)
(1.00024062992784 -1.083542786527186e-05 3.636551312066388e-06)
(1.000711727436284 -0.0001176071945043911 1.719722428421271e-05)
(1.000660469744222 -0.0001030618723046243 3.161713340344932e-05)
(1.001095312302685 -0.0003004287803071263 4.11687974987264e-05)
(1.000837710742495 -0.0001661494109908798 5.004426055627253e-05)
(1.001180646778406 -0.0003353144778259925 4.66941005046479e-05)
(1.001634405592914 -0.0005371715714093197 8.443731095565789e-05)
(1.002373120895365 -0.0009172352595488325 0.0001666166843822509)
(1.003650340133549 -0.001695935219506528 0.00036474876808109)
(1.006020918749516 -0.003470459768244304 0.0009133058555576487)
(1.016859237992612 -0.009773219293097523 0.006679687322104628)
(1.001034511346651 -0.0002600805747386079 9.319783193672724e-05)
(1.001380071926427 -0.0003932637286219876 0.0001576520913570309)
(1.001902199124844 -0.0006120750290248679 0.0002831354853655447)
(1.002714981295999 -0.0009862128979289939 0.0005396434591161782)
(1.004007943972992 -0.001632670645523325 0.001093881943342638)
(1.006067389719782 -0.002704762374379833 0.002340149184235847)
(1.033939108414947 -0.01605941570534104 0.008913281186253586)
(1.027171171917759 -0.01069694729697514 0.007967592737246896)
(1.011507252908633 -0.004895496864562921 0.008830034844462009)
(1.053308807047263 -0.01791374946466222 0.03326525574782314)
(1.036230614472335 -0.00154352103477615 0.002035556737424964)
(1.080306789211847 -0.03995437612254308 0.06395785039237598)
(1.063283457426288 -0.001968099924383177 0.002131101951647257)
(1.050866693497482 -0.0252518034064315 0.02733114708509998)
(1.093323112432005 -0.002334510479357667 0.00402212403248264)
(1.057618141253156 -0.04773872229484305 0.07505471713957086)
(1.047675895455707 -0.02822227770940947 0.03064654117738017)
(1.000665657497309 2.076392725945112e-05 0.0001299901365708067)
(1.000499669046494 -6.048179343455075e-06 5.004383060157076e-05)
(1.000416043670436 -4.371913084544114e-06 3.785422992681529e-05)
(1.00035404906981 -3.234903803415199e-06 2.85195799186933e-05)
(1.00030822793087 -2.460214556285499e-06 2.154359402764891e-05)
(1.00027431227508 -1.934337270364001e-06 1.626343047743763e-05)
(1.000249323587697 -1.577609608600864e-06 1.214340963151237e-05)
(1.000231230698238 -1.337303823484855e-06 8.802317194014305e-06)
(1.000218665710338 -1.179849097501711e-06 5.973835136652028e-06)
(1.000210733986041 -1.084582026666375e-06 3.467017152104567e-06)
(1.000206895328274 -1.039647967473983e-06 1.136897250576387e-06)
(1.000748800081357 -1.895387492520608e-05 0.000141377317535421)
(1.000932249820212 -3.895825053847133e-05 0.0002077861058264335)
(1.005586540789021 -0.002964641460887167 0.00518053243613263)
(1.006278502175056 -0.001296900853681784 0.003402752239483879)
(1.003770490918664 -0.0005316216978614813 0.001679232030662956)
(1.002422598719463 -0.0002456347819354546 0.0009052476506234339)
(1.001275022980057 -7.879515502879002e-05 0.0003646152343140284)
(1.000891684111537 -8.16785209772126e-06 4.889914002933706e-05)
(1.001064678345463 -9.492834616740602e-05 0.0002706198114455527)
(1.001105080016965 -1.502128795129499e-05 4.207465165745446e-05)
(1.000987285189999 -9.922252410763154e-05 0.0002310020764447267)
(1.001018883190786 -1.655637663053967e-05 3.819743503676463e-05)
(1.000849581259499 -6.313707583387744e-05 0.0001658942871037484)
(1.00086538674914 -2.468846205209366e-05 5.769179623070834e-05)
(1.001045500507384 -3.92752307630002e-05 1.556632234709215e-05)
(1.001240712969102 -0.0003340869853059837 0.0001408194030169891)
(1.001295052041584 -5.123857471351747e-05 2.171103641694038e-05)
(1.000934174036399 -0.0001990995823497832 9.281346982278931e-05)
(1.000955890791492 -4.356604986924482e-05 1.661282877599098e-05)
(1.00111829386866 -0.0002748066651159261 0.0001435367864353959)
(1.001163162783369 -4.257395348424008e-05 2.235409753825172e-05)
(1.001396816716982 -5.653167880945484e-05 2.471516420726969e-05)
(1.001681070258219 -0.0005075074670301916 0.000245515592228683)
(1.001775865696243 -7.701208650226217e-05 3.732377494630946e-05)
(1.001195746326175 -0.0003015887815791757 0.0001625062291235849)
(1.001246303799209 -4.642009433167311e-05 2.514103955831494e-05)
(1.001474629213501 -0.0003992212963571598 0.0002388866419201736)
(1.001548879796124 -6.083716073939024e-05 3.647479975952137e-05)
(1.001932508116476 -8.577877654038106e-05 4.315530562400855e-05)
(1.002350390241971 -0.0007939453050978557 0.0004510868986682425)
(1.002525153590208 -0.0001201439900397338 6.83010838665246e-05)
(1.001585927898022 -0.0004390926891265239 0.0002728288681888436)
(1.001670796923657 -6.675826248738248e-05 4.153665078666476e-05)
(1.001988967271342 -0.0005862585502711618 0.0004115714784960021)