/*--------------------------------*- C++ -*----------------------------------*\
  =========                 |
  \\      /  F ield         | OpenFOAM: The Open Source CFD Toolbox
   \\    /   O peration     | Website:  https://openfoam.org
    \\  /    A nd           | Version:  7
     \\/     M anipulation  |
\*---------------------------------------------------------------------------*/
FoamFile
{
    version     2.0;
    format      ascii;
    class       volVectorField;
    location    "0";
    object      grad(Phi);
}
// * * * * * * * * * * * * * * * * * * * * * * * * * * * * * * * * * * * * * //

dimensions      [0 1 -1 0 0 0 0];

internalField   nonuniform List<vector> 
12677
(
(-1.000174471522546 1.375869692621178e-07 -9.018268669767e-08)
(-1.000260022067973 7.150361288524338e-06 7.756445112097254e-06)
(-1.000241720198804 5.928521737197288e-06 5.806186752744406e-06)
(-1.000225913206274 4.827001012897162e-06 4.25559165257459e-06)
(-1.000212444442793 3.861630809703909e-06 3.035357013236858e-06)
(-1.000201135102982 3.033451795877877e-06 2.084849416697853e-06)
(-1.000191806909951 2.333853639055608e-06 1.353330082728284e-06)
(-1.000184295965876 1.748227072106925e-06 7.997906951832066e-07)
(-1.000178460643235 1.258417705540722e-06 3.921394200333684e-07)
(-1.000174185694377 8.442903980111097e-07 1.061917142553757e-07)
(-1.000171384122149 4.846746444187005e-07 -7.528177843186609e-08)
(-1.000169997849477 1.052684668045822e-07 -1.633246681174664e-07)
(-1.000240119050795 5.172603990633065e-06 6.234918060297937e-06)
(-1.000225509588219 4.32453623244717e-06 4.709874401883534e-06)
(-1.000212699073532 3.54247490995395e-06 3.471395075474371e-06)
(-1.000201634456969 2.844887358688311e-06 2.47822193679572e-06)
(-1.000192232325147 2.238582052227337e-06 1.691658939377211e-06)
(-1.000184397108121 1.721982922128872e-06 1.077585281218881e-06)
(-1.000178033532368 1.287701148419704e-06 6.072627597614319e-07)
(-1.000173054753754 9.244458719776211e-07 2.574500279858422e-07)
(-1.000169387434966 6.183861449571274e-07 1.017276171919555e-08)
(-1.000166974767281 3.540944507606776e-07 -1.476286211725269e-07)
(-1.000165778170173 7.67954501934885e-08 -2.244418048941782e-07)
(-1.000223414445458 3.653214978444035e-06 4.928815550622983e-06)
(-1.000211698711167 3.066301502915765e-06 3.748075505926047e-06)
(-1.000201284035217 2.515646674056202e-06 2.77111939739721e-06)
(-1.000192176633626 2.01833266874613e-06 1.974393811581408e-06)
(-1.00018435211285 1.582792402601868e-06 1.333950805315729e-06)
(-1.000177769049904 1.210729024453541e-06 8.274405884549101e-07)
(-1.000172379087426 8.988012741155715e-07 4.352131316539174e-07)
(-1.000168134127192 6.400030647112642e-07 1.408374084079962e-07)
(-1.0001649912669 4.24744654239938e-07 -6.872714896615851e-08)
(-1.000162916061704 2.416809861405644e-07 -2.031415549739792e-07)
(-1.000161884577534 5.223079233010843e-08 -2.687706680892924e-07)
(-1.000209575334775 2.495107417177613e-06 3.829886474006442e-06)
(-1.000200107445012 2.089779502320491e-06 2.925059401882282e-06)
(-1.000191586559031 1.705447440811287e-06 2.164176054628638e-06)
(-1.000184050931512 1.356391316889637e-06 1.534473892444754e-06)
(-1.000177511344241 1.050666213989187e-06 1.02160991578407e-06)
(-1.000171960770199 7.911474744077115e-07 6.113187218735022e-07)
(-1.000167382066692 5.76576426228263e-07 2.904747191226951e-07)
(-1.000163753834854 4.025077241925432e-07 4.772143995490223e-08)
(-1.000161054713853 2.621222185972271e-07 -1.261905203319356e-07)
(-1.000159266406107 1.469065202402908e-07 -2.382460971323118e-07)
(-1.000158375700011 3.148011018529526e-08 -2.931085972096881e-07)
(-1.00019829308331 1.620761542808865e-06 2.918127895542091e-06)
(-1.000190552656081 1.34110142570305e-06 2.233770426813206e-06)
(-1.000183509015037 1.075397396424472e-06 1.650308284408145e-06)
(-1.000177216300808 8.349605963714016e-07 1.161320648944643e-06)
(-1.000171705317462 6.266674045102095e-07 7.58534996377677e-07)
(-1.000166990181443 4.53481856482822e-07 4.330881837637374e-07)
(-1.000163073948399 3.150755178427379e-07 1.764154891538242e-07)
(-1.000159953147876 2.084569238475414e-07 -1.915811500824874e-08)
(-1.00015762128587 1.285639908281801e-07 -1.600472278269815e-07)
(-1.000156071433807 6.880154937432179e-08 -2.511877644103234e-07)
(-1.00015529803384 1.434954227668028e-08 -2.959176476788749e-07)
(-1.000189298071141 9.700180602089627e-07 2.167484083301447e-06)
(-1.00018286439203 7.766806193603453e-07 1.660101706579007e-06)
(-1.000176952286208 5.946958851616956e-07 1.222560374126322e-06)
(-1.000171622630889 4.327689828580768e-07 8.519966557837738e-07)
(-1.000166916951377 2.964254464803898e-07 5.438540680044512e-07)
(-1.000162861878539 1.882379847829963e-07 2.927879450611261e-07)
(-1.000159473151541 1.081784739287046e-07 9.334986662405728e-08)
(-1.000156759015647 5.402848160528185e-08 -5.952161437872542e-08)
(-1.000154722970445 2.180579600221962e-08 -1.701660773152275e-07)
(-1.000153365884695 6.183585393687469e-09 -2.419838038453443e-07)
(-1.000152687521385 5.951907855800573e-10 -2.773024686599544e-07)
(-1.000182365934043 4.973712976475224e-07 1.54919833142896e-06)
(-1.00017689508177 3.624304412002431e-07 1.185764171673668e-06)
(-1.000171825227408 2.384314509579836e-07 8.694901083782917e-07)
(-1.000167219178865 1.320147793166044e-07 5.993674989313317e-07)
(-1.000163123726593 4.748695411889572e-08 3.730292742228243e-07)
(-1.000159572579342 -1.311178066115992e-08 1.873671745514064e-07)
(-1.000156589170422 -4.981652586282371e-08 3.902426415351315e-08)
(-1.000154189165119 -6.447030380386059e-08 -7.523250357167779e-08)
(-1.000152382578526 -6.041470540510195e-08 -1.582437724993916e-07)
(-1.000151175465262 -4.21611416612862e-08 -2.122732780873273e-07)
(-1.000150571173942 -1.003715485721851e-08 -2.388881219735786e-07)
(-1.000177319171018 1.694584956941319e-07 1.033624181469872e-06)
(-1.000172524336604 7.269710262929907e-08 7.901091386325945e-07)
(-1.000168050521193 -1.264352589286328e-08 5.767409989070936e-07)
(-1.000163960295407 -8.142259537436625e-08 3.933512927218626e-07)
(-1.000160302722484 -1.302891751988125e-07 2.388022455928794e-07)
(-1.000157115291042 -1.576957756459368e-07 1.113800895594067e-07)
(-1.000154425896322 -1.637997641273476e-07 9.121767180752692e-09)
(-1.000152254706208 -1.502848420709394e-07 -6.992843309001355e-08)
(-1.000150615804372 -1.201292918889881e-07 -1.275269567417771e-07)
(-1.000149518545632 -7.734091941886187e-08 -1.650942732579627e-07)
(-1.000148968588516 -1.778172523111815e-08 -1.836231967512402e-07)
(-1.000174026528076 -3.698884394608846e-08 5.910878144242856e-07)
(-1.000169661160001 -1.107699978826297e-07 4.512301140206543e-07)
(-1.000165568134661 -1.724963180209865e-07 3.281266687842787e-07)
(-1.000161809170096 -2.179932151874028e-07 2.218707310977912e-07)
(-1.000158434132169 -2.445546491565022e-07 1.319799195965158e-07)
(-1.000155482364293 -2.509951333022906e-07 5.761325716501079e-08)
(-1.000152984156325 -2.376003528925786e-07 -2.243693271411059e-09)
(-1.000150962199776 -2.059993392950497e-07 -4.862969239365017e-08)
(-1.000149432918034 -1.589793255790481e-07 -8.249367402974792e-08)
(-1.000148407595004 -1.00260818813943e-07 -1.046116561651848e-07)
(-1.00014789325347 -2.283093536448213e-08 -1.155299246269698e-07)
(-1.000172401616516 -1.366614071490105e-07 1.281279996889949e-07)
(-1.000168244766264 -1.996555124978498e-07 9.773104043282964e-08)
(-1.000164337248804 -2.501943153486886e-07 7.091433510908328e-08)
(-1.000160740167725 -2.845745856045517e-07 4.77185364058037e-08)
(-1.000157503592743 -3.004129874863328e-07 2.805736104747132e-08)
(-1.000154667607308 -2.967130889734359e-07 1.176374391763696e-08)
(-1.000152263533099 -2.738371047416766e-07 -1.370288579930922e-09)
(-1.000150315185635 -2.334008935706456e-07 -1.156106187028752e-08)
(-1.000148840049812 -1.781106115095063e-07 -1.900807064238333e-08)
(-1.000147850294785 -1.115570361088405e-07 -2.387545281403068e-08)
(-1.000147353573819 -2.532052964520786e-08 -2.627919901611096e-08)
(-1.000184277291104 1.642816245081446e-06 5.367456618246239e-07)
(-1.000179312093615 1.102500957653269e-06 2.12903214426043e-07)
(-1.000176071280538 6.332364182182602e-07 8.590054277085713e-09)
(-1.000199932207654 3.052936597983342e-06 1.641102772371529e-06)
(-1.000191093525396 2.283220049068015e-06 1.002249639315882e-06)
(-1.000280918357374 8.459260399112724e-06 1.01806731380332e-05)
(-1.000256524874996 6.055471319769504e-06 8.086429459892107e-06)
(-1.000236377076058 4.25057748538382e-06 6.333244611331308e-06)
(-1.000219913027965 2.901331345689715e-06 4.887428236288645e-06)
(-1.000206645447581 1.899205754255237e-06 3.70627049561052e-06)
(-1.000196168490031 1.163411268775192e-06 2.744754357079606e-06)
(-1.000188156165739 6.348204665529705e-07 1.958718233963848e-06)
(-1.000182357291942 2.711918716439437e-07 1.306043068447115e-06)
(-1.000178589674862 4.363840439721138e-08 7.467941581450634e-07)
(-1.000176734970357 -6.582641620967142e-08 1.618880926094213e-07)
(-1.000329289868277 1.09560118311408e-05 1.658138427962362e-05)
(-1.000304107462558 9.76264782389648e-06 1.311365262859239e-05)
(-1.000274409592735 6.903696726107997e-06 1.026859825520317e-05)
(-1.000250287795638 4.808333392183938e-06 7.952220471963234e-06)
(-1.000230853311304 3.272905009891608e-06 6.08405915435001e-06)
(-1.00021537622212 2.151261611648058e-06 4.584368858552011e-06)
(-1.000203272695699 1.338909601963249e-06 3.379817076922052e-06)
(-1.000194088002308 7.617276866817609e-07 2.40474060585626e-06)
(-1.000187479882123 3.680429153299685e-07 1.600530721589437e-06)
(-1.000183204352574 1.23172364345427e-07 9.142773399798141e-07)
(-1.000181104825941 5.805396061658393e-09 1.981112189622964e-07)
(-1.000283451502151 9.703322032539353e-06 9.480995191963659e-06)
(-1.000260480987661 7.950420172667038e-06 7.015479737143736e-06)
(-1.000240970322962 6.412262854443923e-06 5.100912629136246e-06)
(-1.000224589400614 5.093156102989209e-06 3.625272199212886e-06)
(-1.000211010332651 3.9806813731112e-06 2.496456105809517e-06)
(-1.000310170085953 1.164601574658896e-05 1.262815303053371e-05)
(-1.000466722279334 1.065861407612855e-05 3.997655294404024e-05)
(-1.000440919985824 1.220140454996421e-05 3.451375282114487e-05)
(-1.000413154800644 1.250981074622901e-05 2.910434052835458e-05)
(-1.000384639774678 1.235905688478342e-05 2.514026015507949e-05)
(-1.000356361574972 1.1902189139097e-05 2.063407493559625e-05)
(-1.000391968715691 6.901360757231048e-06 2.835387228086652e-05)
(-1.000374377701346 7.967835337587211e-06 2.51443962007982e-05)
(-1.000354826500495 8.431360396051619e-06 2.182798406482313e-05)
(-1.000334300787051 8.482082985513612e-06 1.869437694397329e-05)
(-1.000313622452057 8.206226939089276e-06 1.561327903636544e-05)
(-1.0002934839868 7.645902680174793e-06 1.277569540651152e-05)
(-1.000336875063019 4.538023520167142e-06 2.036053274660441e-05)
(-1.000324453646204 5.269142342445634e-06 1.832459569957269e-05)
(-1.00031040335396 5.65814193861283e-06 1.613454622230407e-05)
(-1.000295406729157 5.757355572502364e-06 1.39320056293133e-05)
(-1.000280065630443 5.614945015053363e-06 1.178220890465846e-05)
(-1.000264890879554 5.278512100235817e-06 9.770291525237803e-06)
(-1.000295846279866 2.982871916049713e-06 1.469511724592877e-05)
(-1.00028683439165 3.478692143275534e-06 1.335027776773033e-05)
(-1.000276516018804 3.765239075995874e-06 1.187077801953389e-05)
(-1.000265355789774 3.85872099973623e-06 1.034428329774664e-05)
(-1.00025378416025 3.785358476884562e-06 8.83638243293645e-06)
(-1.000242178942185 3.577416799289761e-06 7.403012262018658e-06)
(-1.000265196674311 1.940485403814855e-06 1.05866935617236e-05)
(-1.000258485353592 2.268928512209287e-06 9.682293258931834e-06)
(-1.000250726227869 2.464960999802293e-06 8.673442621063546e-06)
(-1.00024224112367 2.534004949376883e-06 7.61611068530519e-06)
(-1.000233339833793 2.490517907503498e-06 6.557752559017816e-06)
(-1.000224303910241 2.35479872737842e-06 5.537460466848458e-06)
(-1.000242430380249 1.237156192234479e-06 7.544352376004983e-06)
(-1.000237285285669 1.446301034149473e-06 6.934194942277486e-06)
(-1.000231288399399 1.570393118663529e-06 6.246788309213765e-06)
(-1.000224669087034 1.611284670090564e-06 5.518072661487276e-06)
(-1.000217654892015 1.577268501234561e-06 4.78028262008757e-06)
(-1.000210459203853 1.481148399527544e-06 4.060529647939641e-06)
(-1.000225839410034 7.652354895048576e-07 5.235931534720924e-06)
(-1.000221755156201 8.905637526142105e-07 4.830123538508651e-06)
(-1.000216962197634 9.606552802815654e-07 4.369505187277384e-06)
(-1.000211630256906 9.761783931622444e-07 3.876969086849548e-06)
(-1.000205931902519 9.42212142196488e-07 3.373734006908912e-06)
(-1.000200033424877 8.671247071659689e-07 2.878107767192905e-06)
(-1.000214261302665 4.572708230442268e-07 3.425285052823698e-06)
(-1.000210875306635 5.259213976709831e-07 3.167976886245555e-06)
(-1.000206879938806 5.578847267912195e-07 2.874307967890141e-06)
(-1.000202407259738 5.535057605416472e-07 2.558298634022919e-06)
(-1.000197594261011 5.162070261414309e-07 2.233221874035335e-06)
(-1.00019257595897 4.518147500576872e-07 1.910769460569595e-06)
(-1.000206927938901 2.716532570257705e-07 1.935621833889789e-06)
(-1.000203965699539 3.052767393148206e-07 1.793163793450956e-06)
(-1.0002004565804 3.130117156494625e-07 1.629983766293597e-06)
(-1.000196510496842 2.951711872358939e-07 1.453656908914093e-06)
(-1.000192243175853 2.543606392607247e-07 1.271449311852104e-06)
(-1.000187770599003 1.950352045677663e-07 1.089852062573842e-06)
(-1.000203371863719 1.843485161959516e-07 4.172554880920476e-07)
(-1.000200609822893 2.012509229350959e-07 3.868554132705938e-07)
(-1.000197331049085 1.972363879059024e-07 3.519703205709826e-07)
(-1.000193635200988 1.726449847613104e-07 3.141964144798047e-07)
(-1.000189628062584 1.297476655602189e-07 2.750745659145178e-07)
(-1.000185416618665 7.240130008345643e-08 2.359910309850062e-07)
(-1.000206585162912 4.369841395124227e-07 1.757170763032606e-07)
(-1.000538262766107 5.045719166218552e-05 1.622267760520869e-05)
(-1.000443389617022 3.599858678195168e-05 1.035429861018222e-05)
(-1.000377097567874 2.606543437093372e-05 6.859859337898613e-06)
(-1.000327428205222 1.899959419759943e-05 4.565998305272227e-06)
(-1.000289999772924 1.387609921844878e-05 3.03279302171774e-06)
(-1.000261780185716 1.009755093510395e-05 1.994866544354975e-06)
(-1.000240662581076 7.258466493437268e-06 1.288421248581599e-06)
(-1.000225182000347 5.074516997979744e-06 8.106997034949172e-07)
(-1.000214330029316 3.338987066961475e-06 4.969094259916699e-07)
(-1.000207434729503 1.894507192207137e-06 3.06850214835063e-07)
(-1.000204084755254 4.092457545623495e-07 2.171836991111609e-07)
(-1.000495353147278 4.307824866014996e-05 1.716359385512809e-05)
(-1.000417347646615 3.121694586394313e-05 1.146875757526034e-05)
(-1.000358663544535 2.289577707850768e-05 7.715580816781689e-06)
(-1.000314129584019 1.687327335282696e-05 5.192968790180908e-06)
(-1.000280198436808 1.243435202527568e-05 3.475264069260666e-06)
(-1.000254381972327 9.11315469154255e-06 2.295450266451561e-06)
(-1.000234921177446 6.58708971081051e-06 1.483231567509725e-06)
(-1.000220573605458 4.62421162807087e-06 9.290903606922085e-07)
(-1.000210472866673 3.051630082212592e-06 5.62664398361008e-07)
(-1.000204035857634 1.734717502768724e-06 3.396831792799842e-07)
(-1.000200903078904 3.75071545322112e-07 2.341918989768926e-07)
(-1.000455066542835 3.519280373687221e-05 1.746509363610272e-05)
(-1.00038903530597 2.621314470652153e-05 1.183560454759426e-05)
(-1.000338344367335 1.956551027210149e-05 8.061737785520131e-06)
(-1.000299267069777 1.460783756623839e-05 5.480486339444066e-06)
(-1.000269109304078 1.087509789030054e-05 3.693566644174187e-06)
(-1.000245922466781 8.034374415433312e-06 2.448316917254581e-06)
(-1.000228296213704 5.8433080196151e-06 1.580597082062929e-06)
(-1.000215215146988 4.121072429932865e-06 9.827754328328559e-07)
(-1.000205960257339 2.728529629070245e-06 5.844854109612051e-07)
(-1.000200041900462 1.554303532130739e-06 3.40820524210857e-07)
(-1.000197155671566 3.364065372102169e-07 2.251768228028095e-07)
(-1.00041491230353 2.821895047516735e-05 1.664013891242648e-05)
(-1.000360175347719 2.147775587583975e-05 1.150787038576778e-05)
(-1.000317264037373 1.63136903629236e-05 7.951812239331675e-06)
(-1.000283610333715 1.234909609929009e-05 5.462491056737564e-06)
(-1.000257270033181 9.293890838007984e-06 3.706555888681661e-06)
(-1.000236784412365 6.924721930784461e-06 2.46347670030983e-06)
(-1.000221066945369 5.069207459088006e-06 1.58585358182718e-06)
(-1.000209317397465 3.592524540144076e-06 9.747732610340974e-07)
(-1.000200958925319 2.386748212568383e-06 5.643093276686315e-07)
(-1.000195593358504 1.36257646503324e-06 3.117331571728695e-07)
(-1.000192970800492 2.952223229213177e-07 1.914422961077748e-07)
(-1.000376765662504 2.212914796061169e-05 1.515422107849462e-05)
(-1.000332128329803 1.721452065224482e-05 1.06824726891343e-05)
(-1.000296378744147 1.330422453846303e-05 7.489420991730382e-06)
(-1.000267839203316 1.021096491735088e-05 5.198502754214989e-06)
(-1.000245171210947 7.768975878286096e-06 3.549356267660135e-06)
(-1.000227327923104 5.83793274047687e-06 2.362004106281354e-06)
(-1.000213503677691 4.301436600365222e-06 1.51197637962089e-06)
(-1.000203089628584 3.063044452411506e-06 9.134373038127268e-07)
(-1.000195638023709 2.04180952149969e-06 5.079069011061391e-07)
(-1.000190835117235 1.168119820871281e-06 2.568275890864757e-07)
(-1.000188481919799 2.533485617128865e-07 1.368084133450691e-07)
(-1.000341829987246 1.706564958676995e-05 1.330856815752211e-05)
(-1.000305840518508 1.353921292883399e-05 9.554330023722706e-06)
(-1.000276410921704 1.063386435889999e-05 6.791824181682899e-06)
(-1.000252500002943 8.268314777931618e-06 4.759632088693408e-06)
(-1.000233226632923 6.356088666933858e-06 3.265889152798744e-06)
(-1.000217869271345 4.814578475315238e-06 2.17157136700267e-06)
(-1.000205852223265 3.568906127959778e-06 1.376846831713252e-06)
(-1.000196727955847 2.552595437396658e-06 8.107606571622544e-07)
(-1.000190160072039 1.706688150887613e-06 4.237950182450861e-07)
(-1.000185908968461 9.782244598521381e-07 1.826909041001342e-07)
(-1.000183820941573 2.123519396713009e-07 6.700281796630651e-08)
(-1.000310678181081 1.29634871995354e-05 1.136305475926582e-05)
(-1.000281871440674 1.046503582012566e-05 8.291424812424166e-06)
(-1.00025784654973 8.3382873914684e-06 5.966978994690824e-06)
(-1.000237994036246 6.559103637435163e-06 4.215395773638985e-06)
(-1.00022176074488 5.088484416534988e-06 2.901308549918837e-06)
(-1.000208669551981 3.881424622209744e-06 1.921899076155031e-06)
(-1.000198324293422 2.892025508030509e-06 1.200412944219101e-06)
(-1.000190407344627 2.075955074176621e-06 6.805469999836712e-07)
(-1.000184674234965 1.391308705828206e-06 3.220054481906101e-07)
(-1.000180947745577 7.985850420111176e-07 9.719384789533902e-08)
(-1.00017911279815 1.734686927157212e-07 -1.108645407658077e-08)
(-1.000712773585992 0.0001189942329642057 3.938785495437881e-05)
(-1.000609924313924 5.945178893851887e-05 2.830273493102117e-05)
(-1.0005469143667 4.796027648559121e-05 2.680676285266625e-05)
(-1.000484805866584 3.712461631463951e-05 2.41210552731917e-05)
(-1.000432330575284 2.826871019837308e-05 2.145117699517316e-05)
(-1.000385551078008 2.129009677046252e-05 1.84039335171757e-05)
(-1.000344886209807 1.584028991588549e-05 1.539987900271581e-05)
(-1.001294802009673 4.584279882702232e-05 1.917812021990957e-05)
(-1.000822289353111 4.822601560542527e-05 1.753754683319971e-05)
(-1.001118954043233 3.459778644495556e-05 1.911477603730927e-05)
(-1.000722665677207 0.0001050354027533865 5.053175733341733e-05)
(-1.000992844899355 0.0001771063317595685 0.0001376192482762084)
(-1.000713589005292 0.0001063378385715361 6.460511351491514e-05)
(-1.000748721535438 0.0001029769400313801 8.455111082061455e-05)
(-1.000581953195495 4.904517426181577e-05 3.684352570414063e-05)
(-1.000591711046948 4.540734346847002e-05 4.386946120769631e-05)
(-1.000500327960831 3.565375278426393e-05 3.03136977145587e-05)
(-1.000373980428019 1.563462967296277e-05 2.136348451730203e-05)
(-1.000340427425782 1.366741809438614e-05 1.655262832470182e-05)
(-1.000498440312381 3.178961034919433e-05 3.415765468203088e-05)
(-1.000437562800534 2.615742518628757e-05 2.521095043139024e-05)
(-1.000429601277635 2.238333986804587e-05 2.721413735004283e-05)
(-1.000384532336285 1.899550076680299e-05 2.060100745839731e-05)
(-1.014185316704024 0.0003273512290768245 0.0006161149433220117)
(-1.009401173125193 0.0002729270178705836 0.0003242672087172032)
(-1.005676453199465 0.000308783117641927 0.0002703089968510936)
(-1.003725549772658 0.0001891437644727978 0.0001303289338305451)
(-1.002525017373717 0.0001156370303315763 6.567934694476057e-05)
(-1.001396585505689 5.122730767675593e-05 2.217015510622605e-05)
(-1.000576045468025 1.78172115012825e-05 5.715838236107155e-05)
(-1.000534621320359 2.041769335750422e-05 4.695056767424483e-05)
(-1.000461518354974 4.880509830273592e-05 -7.18726199367593e-05)
(-1.000450029331252 1.747980101445101e-05 3.487535103230024e-05)
(-1.000410817481885 1.729807310715594e-05 2.731007851116763e-05)
(-1.000959661390757 8.409996625239899e-06 4.294108366049342e-05)
(-1.000855777141765 7.528641867188378e-05 0.0001860963125303704)
(-1.000988093264446 1.398428867585425e-05 3.097476323701408e-05)
(-1.000799038885904 -7.925707607856443e-05 8.282350535668542e-05)
(-1.000635599734572 4.864830512463607e-05 8.210755433585502e-05)
(-1.000577972178478 3.98274102806558e-05 4.59327030770658e-05)
(-1.000701530613374 1.312170349250417e-05 5.270665089985926e-05)
(-1.000714071604407 5.265042811619648e-05 0.0001188468524452393)
(-1.000666634627741 -2.207028928930133e-05 0.0006580095008954424)
(-1.000509101647428 -7.951991860103508e-05 8.49365077552133e-05)
(-1.000480414321641 2.625545393524888e-05 3.580897202602215e-05)
(-1.00595477246167 0.001343455843511329 0.003126291817163905)
(-1.004632263315294 0.001300270431301423 0.001995585344299141)
(-1.003453020340664 0.001034776636482348 0.001177517917854492)
(-1.00253853283922 0.0007497119345911338 0.0006761406272697794)
(-1.001875370834962 0.0005229412392716773 0.0003902278712345654)
(-1.001196335462107 3.805683795406907e-05 2.170816996407307e-05)
(-1.003629656307609 0.000564048746239098 0.001567685597751564)
(-1.003285616257353 8.980231225331155e-05 0.0001678229257361147)
(-1.0025930255715 7.954761846578691e-05 0.0001111936182529007)
(-1.00200841218119 6.343375013591888e-05 7.061199389547768e-05)
(-1.001550857301509 4.769236053427465e-05 4.401749136122175e-05)
(-1.000980424311509 0.0001811124607730584 0.0001403649942201205)
(-1.002354504414018 0.0002636718462316349 0.0008568037620967918)
(-1.002182044817338 4.410376181314299e-05 9.704179867848885e-05)
(-1.001821918023798 4.247696192684703e-05 7.030158897742452e-05)
(-1.001490502287339 3.677685275350345e-05 4.866291202173228e-05)
(-1.001209011880321 2.971673615433875e-05 3.271238017018059e-05)
(-1.000828046520208 0.0001231853093027214 0.0001079276107155497)
(-1.001306812745388 1.175699938370788e-05 4.848428666002762e-05)
(-1.001192317240569 1.456388687866175e-05 4.080529746027557e-05)
(-1.00106020375014 1.567803009327149e-05 3.303695090598497e-05)
(-1.00091823009061 5.728895743142636e-06 3.596330519419378e-05)
(-1.000804445201685 3.039654913138905e-05 3.861705190350217e-05)
(-1.000746835369293 8.934615607025722e-05 9.909268086836877e-05)
(-1.000487651191492 7.422970096456634e-06 4.432387620295449e-05)
(-1.000406221831227 5.175330561367163e-06 3.090619351727219e-05)
(-1.000346908996061 3.469466968933234e-06 2.201338002247788e-05)
(-1.000303082501978 2.288246907340514e-06 1.579554640829643e-05)
(-1.000270549745065 1.488410707291112e-06 1.132567392307513e-05)
(-1.000246508551774 9.494523270157826e-07 8.040550896093435e-06)
(-1.000229059083119 5.892371964714388e-07 5.564291489504983e-06)
(-1.000216918668895 3.550691570251663e-07 3.632624987855176e-06)
(-1.000209245279991 2.143455613001454e-07 2.050087206449509e-06)
(-1.000205528913503 1.482764613656139e-07 4.416466644120665e-07)
(-1.000611277577274 1.467174541321175e-05 6.530806586163545e-05)
(-1.000742655257709 1.083635504470122e-05 5.924214426278993e-05)
(-1.000597754622147 6.24629606205727e-05 8.885379228965979e-06)
(-1.000482033256247 4.383844745219071e-05 5.458784368361876e-06)
(-1.000403648560073 3.100793342367127e-05 3.523783623370726e-06)
(-1.000346192660422 2.219617709622859e-05 2.301934735723202e-06)
(-1.000303615575135 1.598883452523504e-05 1.509681857244173e-06)
(-1.0002719301287 1.151369181000307e-05 9.856011902826822e-07)
(-1.000248458964894 8.211166807992081e-06 6.35057719003704e-07)
(-1.000231387085154 5.707054485951008e-06 4.010852275189676e-07)
(-1.000219488799791 3.739709939262812e-06 2.488642540031324e-07)
(-1.000211958866889 2.116287583425662e-06 1.572704049232322e-07)
(-1.000208309143789 4.565677399759137e-07 1.142247240241632e-07)
(-1.000572655088251 5.716670796147352e-05 1.339003367192965e-05)
(-1.000465712010167 4.046915271697925e-05 8.362956203406945e-06)
(-1.000392510060123 2.889080239430735e-05 5.45424005134133e-06)
(-1.000338372545369 2.083702060887147e-05 3.590888152487971e-06)
(-1.000297971727653 1.509730992051138e-05 2.367884149216673e-06)
(-1.000267741151682 1.091982545657643e-05 1.551005787315044e-06)
(-1.000245252714223 7.813548224558425e-06 1.000575718279617e-06)
(-1.000228842644135 5.443991730039003e-06 6.31157207744883e-07)
(-1.000217378253838 3.573474195467436e-06 3.898498678245909e-07)
(-1.000210110974258 2.024433434180675e-06 2.442523655229056e-07)
(-1.000808917339399 0.0001505643087895288 2.152287685731659e-05)
(-1.000669312472815 4.856855740313567e-05 8.701204590723039e-06)
(-1.001499535215416 0.0004693579848937571 7.12769595187324e-05)
(-1.000885424224395 0.0002006395981998673 3.803408355691341e-05)
(-1.001337731421538 4.879145961328848e-05 1.880041576596077e-05)
(-1.000860182539546 5.309075141827053e-05 1.57015784762354e-05)
(-1.006050356566922 0.0004411005907814889 0.0001100814503634631)
(-1.003578238026333 0.0002147781254064149 4.41554688892449e-05)
(-1.001633334976825 0.0005317778461007914 8.349868719024943e-05)
(-1.015568910280664 0.0003811522823766279 0.0006948679740106638)
(-1.010086066428475 0.000294121600963164 0.0003395615413570084)
(-1.006275702679111 0.0003670640791234171 0.0002964281848073472)
(-1.004010504580907 0.0002151685867844837 0.0001366115066710677)
(-1.002668042862122 0.0001275839746843948 6.673815622928794e-05)
(-1.001445883751474 5.470497750459446e-05 2.180215474194725e-05)
(-1.02755793429005 0.01030967351075855 0.008838989073033642)
(-1.050017090596936 0.001780340663178158 0.003424067787205857)
(-1.036230365130396 0.001541611280491394 0.002033757588245409)
(-1.080305388468701 0.03995231606891219 0.06395514268007257)
(-1.063283238706281 0.001965969566546984 0.002129683355382682)
(-1.050664105739284 0.02581387821711928 0.02797493000309116)
(-1.09332278916298 0.002333005851860821 0.004020304921653449)
(-1.057616457126621 0.0477366092973273 0.07505178139580264)
(-1.047712323970123 0.02870491967362213 0.03119959196112935)
(-1.000503362300328 5.12576691900261e-06 4.570382757102824e-05)
(-1.000415829508419 3.307262565306634e-06 3.20756183285006e-05)
(-1.000353900974823 2.195179583877343e-06 2.307837356573984e-05)
(-1.000308140529408 1.443405538554098e-06 1.656004262326773e-05)
(-1.000274279373708 9.378325658795251e-07 1.184700708044308e-05)
(-1.000249337927851 5.98502765040164e-07 8.39081571550075e-06)
(-1.000231284053047 3.724518687908113e-07 5.795471553367249e-06)
(-1.000218749049045 2.258979590138811e-07 3.778200281795301e-06)
(-1.000210837661508 1.380027156225703e-07 2.130292199114126e-06)
(-1.000207009277085 9.678683423094908e-08 4.587195439130342e-07)
(-1.000665150162119 2.137553433178687e-06 0.0001240913041993894)
(-1.000974935892186 4.228321588104751e-06 4.311323194561998e-05)
(-1.000761982290952 7.637942586308928e-06 4.559423422638496e-05)
(-1.006284185685932 0.001340858596527897 0.003292027344731143)
(-1.003769298761077 0.0005300656201133453 0.001674970676216758)
(-1.002421499913999 0.000244107318325169 0.0009003890918073596)
(-1.00133078986705 1.070962039837115e-05 5.017232490989284e-05)
(-1.014841288064692 0.0003284816584305622 0.0006633605326666382)
(-1.001045204120033 3.364975549061758e-05 1.30652341874105e-05)
(-1.00100579722161 0.0002413874796427001 9.39358005720657e-05)
(-1.00123964896992 0.0003287214915388598 0.0001382856540262661)
(-1.001162921201521 3.7223204752455e-05 1.927077806910142e-05)
(-1.001117253909111 0.0002695207682494699 0.0001404075532600122)
(-1.000954596757532 3.791480069603814e-05 1.248727247512195e-05)
(-1.000931670397174 0.0001981413984100417 9.138117942238731e-05)
(-1.001076117777383 0.0002511521841560469 0.0001391601723301533)
(-1.000964754855306 0.0002054048113986127 0.0001128991694542989)
(-1.000988863396738 2.629500189007454e-05 1.795800655941911e-05)
(-1.000923473874267 3.848208387112593e-05 1.247285989611933e-05)
(-1.000896550352532 0.0001770958099363946 0.0001142096919968812)
(-1.000874177735779 4.713409535567854e-05 2.740502255179153e-05)
(-1.00085490483247 0.0001462109466544851 8.659821972063165e-05)
(-1.010695864009362 0.004247016127922672 0.007916288778471883)
(-1.006831184324073 0.001652030571510133 0.003810632133364756)
(-1.007842166760736 0.0001388764126632783 0.0003912856991780942)
(-1.009928688050682 0.0002734189504055037 0.0003431572442624707)
(-1.007949867509587 0.003635038544380211 0.004516835752420628)
(-1.005584198390734 0.001660541028059555 0.002641149693628579)
(-1.006408930534413 0.0002553922758144108 0.000406256669878834)
(-1.007510156762518 0.003497663964824019 0.004191687008030021)
(-1.00632772386399 0.0003471118727238538 0.0003257915495026963)
(-1.005505287487489 0.002255992356206961 0.002114863255859541)
(-1.00518788521754 0.001593594746960413 0.002312785074960991)
(-1.005911479514104 0.0002435464049961135 0.0003544806185484489)
(-1.004104282375222 0.001320593930678464 0.001516200185841449)
(-1.004580370970178 0.0001992744683806827 0.0002292502979178683)