/*--------------------------------*- C++ -*----------------------------------*\
  =========                 |
  \\      /  F ield         | OpenFOAM: The Open Source CFD Toolbox
   \\    /   O peration     | Website:  https://openfoam.org
    \\  /    A nd           | Version:  7
     \\/     M anipulation  |
\*---------------------------------------------------------------------------*/
FoamFile
{
    version     2.0;
    format      ascii;
    class       volScalarField;
    location    "0";
    object      mag(grad(Phi));
}
// * * * * * * * * * * * * * * * * * * * * * * * * * * * * * * * * * * * * * //

dimensions      [0 1 -1 0 0 0 0];

internalField   nonuniform List<scalar> 
12677
(
1.00017447152256
1.000260022123604
1.000241720233225
1.000225913226974
1.000212444454853
1.000201135109755
1.000191806913589
1.000184295967724
1.000178460644104
1.000174185694739
1.00017138412227
1.000169997849496
1.000240119083603
1.000225509608657
1.000212699085829
1.000201634464085
1.000192232329082
1.000184397110183
1.000178033533381
1.000173054754214
1.000169387435157
1.000166974767354
1.000165778170202
1.000223414464273
1.000211698722889
1.000201284042219
1.000192176637611
1.000184352114992
1.000177769050979
1.000172379087925
1.000168134127406
1.000164991266993
1.000162916061754
1.000161884577571
1.00020957534522
1.000200107451472
1.000191586562826
1.000184050933609
1.000177511345315
1.000171960770699
1.0001673820669
1.000163753834936
1.000161054713895
1.000159266406146
1.000158375700055
1.00019829308888
1.000190552659474
1.000183509016977
1.000177216301831
1.000171705317946
1.000166990181639
1.000163073948464
1.000159953147898
1.000157621285891
1.000156071433841
1.000155298033883
1.00018929807396
1.000182864393709
1.000176952287132
1.000171622631345
1.000166916951569
1.000162861878599
1.000159473151552
1.00015675901565
1.00015472297046
1.000153365884725
1.000152687521424
1.000182365935366
1.000176895082538
1.000171825227814
1.000167219179053
1.000163123726664
1.00015957257936
1.000156589170424
1.000154189165124
1.000152382578541
1.000151175465285
1.000150571173971
1.000177319171567
1.000172524336918
1.00016805052136
1.000163960295488
1.000160302722521
1.000157115291061
1.000154425896336
1.000152254706222
1.000150615804387
1.000149518545649
1.000148968588533
1.000174026528251
1.000169661160109
1.00016556813473
1.000161809170145
1.000158434132208
1.000155482364326
1.000152984156353
1.000150962199799
1.00014943291805
1.000148407595014
1.000147893253476
1.000172401616533
1.000168244766289
1.000164337248837
1.000160740167767
1.000157503592788
1.000154667607352
1.000152263533137
1.000150315185662
1.000148840049828
1.000147850294792
1.000147353573819
1.000184277292597
1.000179312094245
1.000176071280739
1.00019993221366
1.000191093528504
1.000280918444951
1.000256524926012
1.000236377105139
1.000219913044114
1.000206645456251
1.000196168494474
1.000188156167859
1.000182357292832
1.000178589675141
1.000176734970373
1.0003292900657
1.000304107596156
1.000274409669267
1.000250287838806
1.000230853335162
1.000215376234939
1.000203272702306
1.000194088005489
1.000187479883472
1.000183204352999
1.000181104825961
1.000283451594146
1.00026048104386
1.000240970356522
1.000224589420151
1.000211010343688
1.000310170233458
1.0004667231348
1.000440920655565
1.000413155302215
1.000384640166916
1.000356361858585
1.00039196914131
1.00037437804908
1.000354826774173
1.000334300997693
1.000313622607567
1.000293484097606
1.000336875280518
1.000324453827923
1.000310403500084
1.000295406842747
1.000280065715593
1.000264890941198
1.000295846392254
1.000286834486788
1.000276516096328
1.000265355850705
1.000253784206444
1.000242178975978
1.000265196732218
1.000258485403027
1.000250726268511
1.000242241155875
1.00023333985839
1.000224303928342
1.000242430409466
1.00023728531075
1.000231288420139
1.000224669103553
1.000217654904681
1.000210459213192
1.000225839424032
1.00022175516826
1.00021696220764
1.000211630264896
1.000205931908652
1.000200033429394
1.000214261308635
1.00021087531179
1.000206879943092
1.000202407263163
1.000197594263638
1.000192575960897
1.00020692794081
1.000203965701193
1.000200456581777
1.000196510497942
1.000192243176693
1.000187770599616
1.000203371863823
1.000200609822988
1.000197331049166
1.000193635201052
1.00018962806263
1.000185416618696
1.000206585163023
1.000538264169903
1.000443390318266
1.000377097930969
1.000327428396076
1.000289999873766
1.000261780238672
1.000240662608242
1.000225182013548
1.000214330035012
1.000207434731345
1.000204084755361
1.000495354221908
1.0004173481994
1.000358663836304
1.000314129739807
1.00028019852013
1.000254382016475
1.000234921200235
1.000220573616579
1.000210472871486
1.000204035859196
1.000200903079001
1.000455067314266
1.000389035719414
1.000338344591159
1.000299267191453
1.000269109370015
1.000245922502045
1.000228296232021
1.000215215155961
1.000205960261231
1.000200041901728
1.000197155671648
1.00041491283991
1.000360175644475
1.000317264202004
1.000283610424859
1.000257270083225
1.000236784439369
1.000221066959472
1.000209317404392
1.000200958928326
1.000195593359481
1.000192970800554
1.000376766022043
1.000332128534963
1.00029637886066
1.000267839268942
1.000245171247415
1.00022732794293
1.000213503688083
1.000203089633691
1.000195638025922
1.00019083511795
1.000188481919841
1.000341830221343
1.000305840655763
1.000276411001286
1.000252500048441
1.00023322665845
1.00021786928529
1.00020585223058
1.000196727959433
1.000190160073585
1.000185908968956
1.000183820941598
1.000310678329621
1.000281871529781
1.000257846602283
1.000237994066635
1.000221760762032
1.000208669561358
1.000198324298324
1.000190407347013
1.000184674235985
1.0001809477459
1.000179112798165
1.000712781435912
1.000609926480383
1.00054691587527
1.00048480684614
1.000432331204649
1.000385551473842
1.000344886453758
1.001294803242758
1.000822290668686
1.00111895482355
1.000722672465249
1.000992870027262
1.00071359674055
1.000748730405367
1.000581955075838
1.000591713038947
1.000500329055338
1.000373980778309
1.000340427656097
1.000498441400501
1.000437563460147
1.00042960189818
1.000384532728749
1.014185556678111
1.009401262107838
1.005676536931146
1.003725576055238
1.002525026194294
1.001396587061392
1.00057604725926
1.000534622630278
1.000461522127039
1.000450030091827
1.000410818004202
1.000959662347172
1.000855797274477
1.000988093841374
1.000799045451367
1.000635604285833
1.000577974025429
1.000701532087424
1.0007140800467
1.000666851215134
1.000509108412797
1.000480415306984
1.005960527462455
1.004635086764379
1.00345424476751
1.002539041165754
1.001875583309138
1.001196336420744
1.003631039181855
1.003285634312526
1.002593034893251
1.002008416677107
1.001550859404298
1.000980450537823
1.002354905287843
1.002182050486094
1.001821921390966
1.001490504144879
1.001209012855734
1.000828059920606
1.00130681398824
1.001192318178041
1.001060204418052
1.000918230753091
1.000804446408328
1.000746844263698
1.000487652200853
1.000406222322016
1.000346909244288
1.000303082629307
1.000270549810291
1.000246508584542
1.00022905909877
1.000216918675555
1.000209245282115
1.000205528913612
1.000611279816107
1.000742657069892
1.000597756611243
1.000482034231581
1.000403649046831
1.00034619290932
1.000303615704057
1.00027193019545
1.000248458998799
1.000231387101516
1.000219488806813
1.00021195886914
1.0002083091439
1.000572656810927
1.000465712863615
1.000392510492167
1.000338372768832
1.000297971844387
1.000267741212489
1.000245252745242
1.000228842659149
1.000217378260298
1.000210110976337
1.000808928896473
1.000669313689309
1.001499647735344
1.000885445057369
1.001337732786743
1.000860184070812
1.006050459289239
1.003578261980294
1.001633479620417
1.015569219525296
1.010086166325679
1.006275813287811
1.004010536931278
1.002668053200365
1.001445885482955
1.027647665991689
1.050024182768541
1.036233507638863
1.08293406086844
1.063287189004574
1.05135342112261
1.093332669900194
1.061350142103422
1.048569740527966
1.000503363357353
1.000415830028095
1.000353901243443
1.000308140667525
1.000274279444304
1.000249337963224
1.000231284069906
1.000218749056206
1.000210837663787
1.000207009277195
1.000665157858611
1.000974936829587
1.000761983358725
1.006290463885758
1.003770836212944
1.002421934007198
1.00133079118128
1.014841558031696
1.001045204770856
1.001005830733828
1.001239712481557
1.001162922078966
1.001117300035438
1.000954597553504
1.000931694180282
1.001076158954557
1.00096478229751
1.000988863903196
1.000923474691733
1.000896572536033
1.00087417922081
1.000854919258583
1.010735788571695
1.006839750829138
1.007842252285611
1.009928783361772
1.007966542462113
1.005589037888414
1.006409044936062
1.007524947518828
1.006327836464869
1.005510042373223
1.005191809112634
1.005911571456266
1.004106295526321
1.004580416892841
1.004992457850513
1.004128383492499
1.003725544533817
1.003787117015587
1.004197387249145
1.002964032396729
1.003228537683652
1.003386504176004
1.002773426425017
1.002567671003185
1.002732372478031
1.002960941878743
1.002149530331126
1.002298007629079
1.002349718252024
1.00193234730273
1.001821726491336
1.001988207993355
1.002117200843493
1.001585069237593
1.001670663396773
1.001333782601862
1.001775689971455
1.001680170633456
1.001246089091248
1.001194781871761
1.001473744762318
1.001548730240655
1.000920750013835
1.001204610890511
1.001156691425316
1.000877143167487
1.000909035563337
1.001131893648334
1.001089034644908
1.000890514288471
1.00110499151899
1.001063871405142
1.001018781973774
1.000986492930747
1.000872139311496
1.00085479464047
1.006886840384431
1.004084723015584
1.004542505515672
1.00496220370046
1.005621513165432
1.003889394893452
1.003533909700067
1.00521953219039
1.003726091966108
1.004122785916908
1.003669526174923
1.003346505569277
1.003040084643215
1.002803792423668
1.003800830637429
1.00274242410501
1.002971863724577
1.002845930208377
1.002634387133903
1.002322668761994
1.002172645700994
1.002738887663978
1.002020797209282
1.002153383008053
1.002168810018198
1.002035343599566
1.001766858375143
1.001673077135902
1.001991483342334
1.001509032361591
1.001587196121784
1.001651460477079
1.001568064957611
1.001354152206962
1.00129535332846
1.001148619139455
1.001018749161018
1.001051378433323
1.00140683330648
1.001475630668481
1.001269565177238
1.001217299153067
1.004001350413797
1.002609964376689
1.002814781242085
1.003467533038327
1.003174645313437
1.002512038917651
1.002342589353287
1.003017709179297
1.002758012558495
1.002557937733046
1.002405751094555
1.002248157601324
1.002087142542865
1.001963205382029
1.002412684489294
1.002142593837467
1.002012140803226
1.001984053671717
1.001870369800829
1.001692999356849
1.001606470130903
1.001891639095221
1.001653817152945
1.001570341421095
1.001603328746688
1.001524606660156
1.001358955617429
1.001299997044603
1.001476236296581
1.001283002113893
1.001229651931604
1.00128584646123
1.001232247562776
1.001090912194154
1.001049475129463
1.001004350623741
1.000839303897621
1.000888005431701
1.001206001311201
1.001158520963257
1.001033659570723
1.000995065014755
1.002525266929251
1.001764416555209
1.001865928004653
1.002271780006937
1.002129087751036
1.001712533223233
1.001624833573719
1.00204873492033
1.001910597410315
1.001804228415856
1.001657100247038
1.001574212812052
1.00148543191795
1.001416841220358
1.001723872001794
1.001569142567214
1.001493430593163
1.001427952848507
1.001363955545257
1.001259889265965
1.001208786557246
1.001421308231099
1.001274257386896
1.001221684530987
1.001206279501321
1.00115907171038
1.001055389649231
1.001017575567629
1.001160843951057
1.001034050123301
1.000995056659338
1.001009228871685
1.000970801107542
1.000886222804841
1.000827691215443
1.001251917960893
1.001612507255859
1.001698851167521
1.00122316570399
1.001174290541399
1.001567888020183
1.001492643357337
1.001145569546905
1.001094280671489
1.00105531127087
1.001520287002003
1.00144893976402
1.001371886258943
1.001312267615719
1.001024720250013
1.000955303455196
1.000937818205401
1.001321831144548
1.001266062501363
1.001174295537039
1.001129619086214
1.000901525790234
1.000873612835083
1.000855563659187
1.00112695335576
1.001085516289615
1.00099268904485
1.000955503806686
1.001577687848245
1.001421768160357
1.001492462255085
1.00123001001232
1.001179704240859
1.001175162094181
1.001129354466054
1.000917281940928
0.9999037232542838
1.000872097111484
1.001138541971459
1.001094379589015
1.001090544796188
1.001051038797654
1.001074226644505
1.001033494831286
1.001279397497371
1.001389464271343
1.001457263394672
1.001152567131971
1.001107954417321
1.000842226763526
1.001003081731148
1.000966561800073
1.000847753936971
1.000893263939066
1.001070852716493
1.001032358943785
1.021090833611986
1.020401802115129
1.016926956686139
1.01013753379266
1.008047521636633
1.007012423789722
1.006026018242168
1.009377786579079
1.007748608288129
1.00596495911155
1.0052124918051
1.005277313057014
1.004044666825565
1.003650627047498
1.005226179310674
1.004622396608808
1.003619962687042
1.00329421500116
1.003257945952422
1.002552439075179
1.002372414854495
1.00323204901221
1.00296325190196
1.002356650217964
1.002200023072567
1.001724740400159
1.001542971668364
1.001625101740429
1.002300913405349
1.002150327733633
1.002136909809149
1.002004616219293
1.011556132183636
1.023094673130608
1.02153535238147
1.010681678528614
1.008466288605928
1.02136711190484
1.017454187469372
1.008062100684968
1.007053495825562
1.006072473723064
1.015616549681736
1.014068393010045
1.009645243698275
1.00769841284373
1.005465491642001
1.004470010696291
1.004008675942682
1.008477088583531
1.007108831794348
1.00558327579254
1.004910323259388
1.003625888389973
1.00294240436582
1.002714489975477
1.00492041705346
1.004375370006579
1.003455681076834
1.003154938208808
1.002475151175307
1.002021040311059
1.001901347804691
1.003096654731928
1.002847002582524
1.002278041253733
1.002130428632333
1.001379094165894
1.001851875077662
1.00174901074804
1.001505611244538
1.001584121883974
1.002070597783704
1.001945420575391
1.031741825484176
1.036879773241112
1.026391482215933
1.028466210965031
1.033698034422247
1.025555756827785
1.023285442402225
1.019622540515062
1.024571480529051
1.021287178809442
1.02295260581572
1.039724197707657
1.041433804340171
1.061349564566625
1.059589845100824
1.050647459112211
1.097780307385197
1.083334547348141
1.079136015726011
1.103969270150424
1.043320898898048
1.053985048517071
1.085352122939128
1.039382484405192
1.042268241525604
1.059048705649997
1.049610270930752
1.029762692188595
1.03036344203106
1.037567853855096
1.02791945699154
1.025292266685558
1.052854325251966
1.044838461033078
1.127825291543226
1.137891338906053
1.104821339014106
1.111859346076447
1.093838548346165
1.065189331466219
1.076438439636056
1.077786416725435
1.104474081150712
1.121512997003388
1.100356418898864
1.082321022226097
1.071538953596109
1.084900274194262
1.110627511567979
1.092516879970365
1.065552157726223
1.076785497920419
1.07310723614318
1.090331530335869
1.077801803127549
1.060424169274897
1.075300420213184
1.074025873517906
1.071658597077381
1.095756926011689
1.08687395914567
1.05792592561375
1.05695146987823
1.058755226337333
1.071619534016534
1.072747071392912
1.069337942059021
1.088179160505738
1.115946330201656
1.124395491158563
1.096394671366373
1.079643442893436
1.075652361210446
1.10249864034986
1.060682637921109
1.071468416200583
1.051534775767788
1.053466089271293
1.071200386634905
1.082249766975411
1.075284938000989
1.053323713900488
1.075917080386508
1.066259958710935
1.055120482453182
1.056222302156719
1.070612131426409
1.051177931264087
1.051328137409484
1.054200509969353
1.053342353035559
1.067162154226396
1.049430113420919
1.043895154852732
1.045586858098221
1.046268499571744
1.000929584906917
1.001225331473661
1.001176014354397
1.007325565826381
1.004255099504731
1.004746383943741
1.004166188509016
1.002689875786369
1.002905757942843
1.002600869782586
1.001805130364617
1.001910814489654
1.001274169132577
1.001647297400341
1.0017369671986
1.016333912060088
1.012014400178915
1.037845404315482
1.02951358717232
1.011142902222815
1.00590431520581
1.008094302081339
1.050455269969093
1.042608373204719
1.055913911720838
1.135824939306586
1.146980171002801
1.110021285786189
1.128850197060922
1.086761207401912
1.074556457733686
1.088904968602477
1.116867015728564
1.09799430649422
1.092436699503685
1.122695641926285
1.131976250092335
1.029340225215251
1.026475320839754
1.025747046541783
1.021879527294594
1.020078048068357
1.021573836501633
1.039305702133562
1.050865119885747
1.038349880682652
1.044513094505019
1.036182310478185
1.057330847741899
1.045178801883259
1.027626473730377
1.028129002692884
1.023672903427362
1.040426613354627
1.068906866957315
1.040314250559554
1.052621856126169
1.001156835818293
1.001203015390175
1.001285369923114
1.00125110155619
1.001242219892526
1.001194678963639
1.001164725375329
1.000806317690725
1.000977368847325
1.000942395510143
1.00076370931876
1.000778246966352
1.000884348150882
1.00086388479536
1.001003559237424
1.001111771885383
1.001075339021285
1.00104832784917
1.00104205775789
1.001068732533376
1.001009463671288
1.000736680632763
1.000684905292998
1.000695774367499
1.000830926329099
1.00081462478523
1.000775601314309
1.000761436144067
1.000951809625127
1.000818844818647
1.000803700401295
1.000776814373112
1.000789471411616
1.00074843359132
1.000735321671157
1.009188828631416
1.013369015918857
1.010879998945889
1.012262180654897
1.011616100859616
1.010362834266022
1.009616734801639
1.006774480111261
1.00898169876783
1.007955708605184
1.007744385899809
1.007542414532386
1.007743789586114
1.006942038120885
1.004555991832017
1.005556633791902
1.005097301412459
1.005131804325474
1.005030996794997
1.004997267337695
1.004641084519566
1.003096548400673
1.003666802837834
1.003369045146194
1.003454770317998
1.003403222861191
1.003319550815938
1.003140337205065
1.002160900646144
1.002494873813701
1.002304237624921
1.002384772928761
1.002357498619348
1.002278498186195
1.002184329031537
1.001440721077109
1.001385839753029
1.001509641180647
1.001346560841316
1.001336487792059
1.001497330741115
1.001452209374057
1.001009070367683
1.000955332509735
1.001032892028731
1.000942756669957
1.000938127407466
1.001026773670202
1.001015022004075
1.000920487906453
1.00087629622119
1.00092328401346
1.000816339449234
1.000940018829159
1.000843101155806
1.000905104676681
1.000959792275717
1.000897017200667
1.000971741133604
1.000824709738648
1.000811132393267
1.00074872909835
1.000763723573553
1.000811720736801
1.000771358672978
1.000756938578762
1.000732789024561
1.000717904046904
1.000688137415667
1.000672682085703
1.000689770318236
1.000781243704806
1.000797848767096
1.000673188594317
1.000662231340642
1.00076080837516
1.000747475518345
1.00528269938251
1.006400047123498
1.005233041196502
1.005630740059775
1.006028197361144
1.005580668958016
1.004965233615184
1.004090749531405
1.004919078490743
1.004318201351909
1.004147757352669
1.004569057872788
1.004380091070577
1.003883677546244
1.003060363719288
1.003623514707525
1.003199643689634
1.003152748522713
1.003347460903357
1.003296220666036
1.002934018726023
1.002268351619904
1.002637064280895
1.002351566355652
1.002358581671417
1.002437061870744
1.002444330395002
1.002193037291194
1.00169272690424
1.001932615570616
1.001742514351324
1.001767840944177
1.001792476435821
1.001819031425774
1.001647633176061
1.001217380739362
1.00118825189173
1.001147266475692
1.001281079717888
1.001139915862395
1.001271948601233
1.001225705390158
1.003256324500757
1.003811896999976
1.003240443607792
1.003483484019902
1.003651843821139
1.003388126060153
1.003118148337351
1.002765936156588
1.003239381260685
1.00310560418302
1.002951805151939
1.003063526297266
1.002913323206354
1.002801168414758
1.002207703377207
1.002562024528002
1.002435137850627
1.002367049916782
1.002407277073928
1.002340575581119
1.002231641164349
1.001734895135208
1.001988405451135
1.001882334264238
1.001861344732539
1.001864447199805
1.001843833584301
1.001750637730485
1.001360325155766
1.001538100193288
1.001454994702003
1.001456519882018
1.001443592147574
1.001445102213306
1.001370586665332
1.00100607639943
1.001004771385561
1.000944738570578
1.001032987738614
1.000961432870348
1.001053462968829
1.000988006791017
1.002137930224716
1.002438594602572
1.002131986069954
1.002283106255103
1.002362395854703
1.002202087006834
1.002071284966017
1.001889742235142
1.002159189940612
1.002091378631005
1.001985086284537
1.002070112825891
1.001965680545458
1.001907874184875
1.001587836525736
1.001805138798672
1.001735166424334
1.001676420066398
1.001719742634763
1.001661914395711
1.001601227716509
1.001311165633052
1.001478675626506
1.001415065870006
1.001387273326007
1.001404267628329
1.001376867239135
1.001320710612936
1.001075178984189
1.001200734532692
1.001147242789582
1.001137475530305
1.00113960484511
1.001129964855566
1.001082206847405
1.00084646362503
1.000752192055654
1.000766476982617
1.000982318448254
1.000946774882916
1.00084679072173
1.000826946530167
1.001381168500355
1.001297425023429
1.001421892124058
1.001280690602614
1.001271627861844
1.001411042308389
1.001391621377357
1.001244391806728
1.001184354687673
1.001160419098973
1.001289674434268
1.001152878322914
1.001280534176081
1.001253054915553
1.001094259030753
1.001054605620734
1.001025552731096
1.001139140714518
1.001020419978029
1.001132253677851
1.00110046823839
1.000944372261225
1.000915558699745
1.000899444765599
1.000985955671197
1.000882476799733
1.000981353112625
1.000950710232751
1.000760920617722
1.000745526461565
1.000732512170875
1.000951976110114
1.000911297774496
1.000833352722618
1.000781663243242
1.000727127297863
1.000855735233747
1.000837300722386
1.000726420774196
1.000717668072406
1.000812687669477
1.000829411601243
1.000825608159397
1.000758651529343
1.000807217052308
1.000707978304055
1.000721719781407
1.000694394497189
1.000707592113667
1.000657610262434
1.000754403862441
1.00074059824442
1.000765957785887
1.000780482397863
1.000677136678224
1.000690107626989
1.001393579535326
1.001538104153558
1.001477250342174
1.001380703406169
1.001413754391018
1.001514643195878
1.001361406975531
1.00095182269202
1.000902267889933
1.000855883691832
1.00094843562987
1.000878609737229
1.000965476959498
1.000934620534782
1.001267628384654
1.001240531063933
1.001327746274266
1.00137943622688
1.001231749913548
1.001368897936862
1.001276853926799
1.023058072181495
1.023729462530729
1.016306921668127
1.017522289500924
1.007546439930933
1.011104845335087
1.010537103942162
1.008640813666165
1.004959213562157
1.005914333688906
1.005257081569402
1.005799887271739
1.005149904380219
1.005673447321943
1.005059492187276
1.003055003223895
1.003522758856756
1.003182087266276
1.003475728449664
1.003136732583373
1.003422973670243
1.003098286652242
1.00180518845156
1.00167842622576
1.001607390130937
1.001784567794001
1.001651019912117
1.001837353913576
1.001754051483923
1.016207978653611
1.014612982667443
1.02090713710116
1.01334353167787
1.012597649894141
1.019329258663378
1.017378733588061
1.009742835418323
1.009613126529116
1.008446018176142
1.012505845071081
1.008106554483611
1.011824480522419
1.010235739283258
1.005989236185735
1.006133486576663
1.005592957662557
1.006929490065155
1.005475595796771
1.006761345399314
1.00612648203475
1.003791122219433
1.003943735974008
1.003607572451346
1.004307217603252
1.003551818243663
1.004231608019303
1.003853658362333
1.002516842865553
1.002634841571546
1.002425754269488
1.002812306907396
1.002397580018973
1.002775884610579
1.00254754998542
1.001608036861446
1.001434456785192
1.001566444335248
1.001493943031249
1.001553297783577
1.001481832597407
1.001622024001457
1.034101446236244
1.038350203513804
1.036251131759396
1.040991275408008
1.025182717664826
1.030094999689542
1.027256949589613
1.026462960992171
1.031849554096671
1.028728849882298
1.029157635364721
1.043252331524146
1.04919756192676
1.053320628582331
1.046515211694722
1.052144593833342
1.048841852041045
1.06129572121134
1.046363062106393
1.045316599591344
1.058797201259385
1.054189205109857
1.036473583570701
1.035532045289772
1.033262634177047
1.040828901619084
1.03265325727947
1.039967434436353
1.037212579657085
1.073355822772605
1.078442678373193
1.078330028414309
1.089457125086245
1.085223752741918
1.097186827079743
1.085165001700352
1.09222590443466
1.079128976226787
1.089565041615501
1.071519486132748
1.067765080630848
1.062815590708571
1.067105172375791
1.067230597945754
1.066588962128147
1.072099597164604
1.054390857187258
1.053961803179335
1.060996143245459
1.054275764222793
1.057764046653668
1.057557794003487
1.05758441258091
1.096020089237041
1.092453384943214
1.102368950592441
1.088693790796673
1.087883246278826
1.101335837944221
1.096966582077198
1.067853350825647
1.062038211406997
1.065516768333294
1.072077887214844
1.06459883116702
1.05633877718303
1.054079032855361
1.059170876711701
1.054628977714438
1.062289758953705
1.052404381651458
1.05138173888726
1.0510331159882
1.047143329254562
1.045236942994388
1.047520837577124
1.050018667177339
1.053904145218977
1.001054975570787
1.000974358398653
1.001048868698273
1.000982604737014
1.001042956648115
1.000975931732674
1.001061588102067
1.000748207565964
1.0008794695837
1.000827873722468
1.006139368728324
1.00680157661816
1.00549107852391
1.006614781715989
1.005867943022643
1.007133029820979
1.005732228023655
1.003627833550355
1.003963828572895
1.003355823065796
1.003900371464991
1.003512685071703
1.004104848708402
1.003462323828277
1.002316421499947
1.002509811474743
1.002188487632706
1.002483216933513
1.00226186451088
1.002574990482452
1.002240008460219
1.001463358412955
1.001321108642045
1.001449756863501
1.001352356820613
1.001438541200836
1.00134241789365
1.001474903078789
1.011888918290302
1.013964025329706
1.011304666741758
1.016784511403645
1.010753372417331
1.015719742545567
1.0125418705985
1.001079401066741
1.001120129551944
1.001038665788816
1.001015430073338
1.001009215471553
1.001112716877923
1.001086459587514
1.001065317418642
1.001025414242909
1.001076611943018
1.000976165966279
1.000996046489884
1.001098072447282
1.001044599783567
1.001141307378074
1.001266854472708
1.001154332881891
1.001199210350305
1.001224779685178
1.001178306949413
1.001118553284028
1.001118651574827
1.001207036127829
1.001155174886659
1.001087253560655
1.001080446015353
1.001198714143388
1.001126051000367
1.001104027441758
1.001158321165677
1.001139878106445
1.001046612967332
1.001066833538138
1.001182348539013
1.001082566843438
1.001045839982626
1.000984077187516
1.001018388842875
1.000950278486178
1.000977314472532
1.001012690574509
1.00105245564602
1.001032473985713
1.000945480260985
1.000983415131121
1.000940716263784
1.00096538703953
1.001000804616879
1.001013106768642
1.000991443069184
1.001097508020881
1.001035392045012
1.001009623997877
1.00102918720591
1.001055847634017
1.000971643432612
1.000955072278519
1.000997116942653
1.0009871847108
1.000914429354728
1.000924203925025
1.001016913053358
1.000933695486318
1.000962111147347
1.001032219747915
1.000981044025698
1.00092741486896
1.000920998109416
1.001026003354135
1.00097030509007
1.000944085970198
1.0009838005937
1.000920955387979
1.000891039765101
1.000979047726288
1.000890566031795
1.000947540957965
1.000932250239495
1.000949972243148
1.000912497062775
1.000834024488792
1.000967651635495
1.000862149282447
1.000911405026686
1.008911599357006
1.012849583391852
1.008960154620364
1.00991887526311
1.011203933639379
1.010026588340141
1.008634609358672
1.008272966989809
1.007461035814074
1.00744803840969
1.006418193388261
1.006952025778676
1.009262522150072
1.007115751056084
1.008506286872463
1.009999374915554
1.00794057001705
1.007496649986275
1.007313934840353
1.009559617634846
1.008884107718927
1.008779480479223
1.011648657873954
1.009468912166732
1.007993781460545
1.007651279078065
1.011053907457328
1.009194330095878
1.008548811846304
1.00817966588249
1.009172318567828
1.007252479895423
1.006930825962777
1.010674350621572
1.007655616299908
1.007447403444004
1.005996403521144
1.006313405689663
1.005985904343653
1.006818542356985
1.006444619489337
1.006834875478132
1.007860534070832
1.006927064432738
1.00738296159167
1.006264434843858
1.007197357527101
1.006761615509321
1.008075967132846
1.006451337378848
1.008708320613014
1.006703575243049
1.006555924472713
1.007121963265619
1.007331665344639
1.005995572568965
1.006138143101913
1.007057549935544
1.006183881976622
1.005676952170594
1.005557481465701
1.006884155782303
1.006279737082393
1.005864513005996
1.006080256174776
1.005905637980475
1.004995664141118
1.005325933267834
1.006551011923482
1.005475909193601
1.005739497611175
1.005827865981537
1.005540691711326
1.004810271843936
1.006258405364868
1.005115416099087
1.005366982493058
1.006001343265506
1.006718828553579
1.005785229927573
1.005438893645893
1.006561477034536
1.005328879699338
1.006136711913468
1.005254331461641
1.004528498601573
1.00444773225269
1.004337140751375
1.004804428764869
1.00471354736754
1.004933257051055
1.005479299215251
1.005096399296557
1.004994496757454
1.004497854947066
1.004997179403938
1.004899055171897
1.005595333939096
1.004390415335004
1.005324140780272
1.004524795049456
1.004554975151719
1.004835184575473
1.004802917784887
1.00415278553074
1.004128976084726
1.004583478268114
1.004058383264149
1.003806872946375
1.00374605563531
1.004499887015578
1.004200864448682
1.003988879663547
1.004103713386033
1.003921944773098
1.003456136389521
1.003627370263592
1.004337211195578
1.003787270570203
1.0040108812583
1.004153479047514
1.00398715919852
1.003490573988573
1.004390168623108
1.003663688110381
1.003808041867431
1.004151824890071
1.004639786198037
1.004126104651016
1.003845137912358
1.004555053944683
1.003783663277972
1.004224147216808
1.003665134581943
1.003202021571422
1.003216437649774
1.00309349503132
1.003351007143216
1.003366149193642
1.003491333872484
1.003785610513097
1.003506788488407
1.003522679334851
1.003182850916326
1.00345404843578
1.003469686944234
1.00384734848891
1.003010890094926