/*--------------------------------*- C++ -*----------------------------------*\
  =========                 |
  \\      /  F ield         | OpenFOAM: The Open Source CFD Toolbox
   \\    /   O peration     | Website:  https://openfoam.org
    \\  /    A nd           | Version:  7
     \\/     M anipulation  |
\*---------------------------------------------------------------------------*/
FoamFile
{
    version     2.0;
    format      ascii;
    class       volScalarField;
    location    "0";
    object      p;
}
// * * * * * * * * * * * * * * * * * * * * * * * * * * * * * * * * * * * * * //

dimensions      [0 2 -2 0 0 0 0];

internalField   nonuniform List<scalar> 
12677
(
-0.0002826961878250234
-0.0004292929755926878
-0.0003976112767641549
-0.0003704932747273589
-0.0003475660202913636
-0.0003284425393785925
-0.000312757360155688
-0.0003001861935808269
-0.0002904556774513888
-0.0002833472839418145
-0.0002786981179717316
-0.0002764003503288681
-0.0003978352607998052
-0.0003723414147875705
-0.0003501691914136718
-0.0003311566409389974
-0.0003151018177157401
-0.0003017939933786952
-0.0002910337653062271
-0.0002826453356108713
-0.0002764835722645352
-0.0002724377843972353
-0.0002704335610687895
-0.0003712961712176622
-0.0003506903893522215
-0.0003325090258129693
-0.0003167154753413221
-0.0003032258574521192
-0.0002919336311138332
-0.0002827270816550491
-0.0002755012272639638
-0.0002701656131023298
-0.000266649211493851
-0.0002649033552157563
-0.0003492085363747206
-0.0003324288629714614
-0.0003174292177277982
-0.0003042447325069921
-0.0002928647717810214
-0.0002832512158950675
-0.0002753524663918747
-0.0002691137361575757
-0.0002644843372483258
-0.0002614226519874664
-0.0002598993612673088
-0.0003311305590152928
-0.0003173119721224837
-0.0003048135855851328
-0.0002937095312786479
-0.0002840331735861096
-0.0002757901807973884
-0.000268969203433591
-0.0002635502163446693
-0.0002595107854856983
-0.0002568305877167227
-0.0002554944976769954
-0.0003166700993286107
-0.0003051054166430433
-0.0002945360634957895
-0.0002850558103116812
-0.0002767234420861895
-0.0002695718666416187
-0.000263616014818558
-0.0002588593566448472
-0.0002552990448212579
-0.0002529297923719063
-0.0002517466229149181
-0.0003054965493421428
-0.0002956013381585532
-0.0002864761448850037
-0.0002782234750279811
-0.0002709161006102693
-0.0002646033210036966
-0.0002593167308384719
-0.0002550752287708394
-0.0002518891515670346
-0.000249763511965661
-0.000248700367954554
-0.0002973455932537471
-0.0002886274889404344
-0.0002805289937760006
-0.0002731557008320069
-0.0002665876094116465
-0.0002608834592885896
-0.000256084984704029
-0.0002522207983957048
-0.0002493097317336999
-0.0002473635399247948
-0.0002463889344937429
-0.0002920201969447006
-0.000284052190886762
-0.0002766118168466601
-0.000269805275448327
-0.0002637159790397276
-0.0002584077052924479
-0.0002539278915646921
-0.0002503107818541159
-0.0002475802289024607
-0.0002457520260393938
-0.0002448356956518474
-0.0002893899332338764
-0.0002817868003161097
-0.0002746676926217524
-0.0002681387166168515
-0.0002622845981044882
-0.000257171277114514
-0.0002528487388110471
-0.0002493537974860618
-0.0002467126286493427
-0.0002449429100147695
-0.0002440554830559669
-0.0002988145235503674
-0.0002906432857458321
-0.0002853205353110081
-0.000324706530151616
-0.000310064089055191
-0.000465837796013736
-0.000426726733661607
-0.0003942827470592177
-0.0003676646839090516
-0.0003461393330398643
-0.0003290915198354865
-0.0003160232646340138
-0.0003065481404491331
-0.0003003842241093441
-0.0002973476105176477
-0.0005519420053877693
-0.000506858339567156
-0.0004585394841086059
-0.000419169895630986
-0.0003873499961013219
-0.0003619363001541398
-0.0003420130474551916
-0.0003268641903467254
-0.0003159483720546957
-0.0003088781338870978
-0.0003054040417958429
-0.0004661166964579625
-0.0004266728422471041
-0.0003935000559210564
-0.0003658809296024819
-0.000343146244584365
-0.0005125314798710337
-0.0008074683291573547
-0.0007589364783050976
-0.0007055882402686146
-0.0006527662429832848
-0.0006009911655632034
-0.0006755340305762194
-0.0006423782530346169
-0.0006055113381261923
-0.0005673810549649829
-0.0005294094005294409
-0.0004928232894523082
-0.0005789089008539682
-0.0005555736034677713
-0.0005292594409788109
-0.0005014124103363364
-0.0004731897765294302
-0.0004455347659935553
-0.0005073158515548279
-0.0004904299642322452
-0.000471156230740674
-0.0004504359041472283
-0.0004291100377178066
-0.000407891210164264
-0.0004540095498197817
-0.0004414540115195296
-0.0004269744540632458
-0.0004112132879240154
-0.0003947766637176674
-0.0003782011177069384
-0.0004144948399427004
-0.0004048787305173805
-0.000393689872693111
-0.0003813834295858738
-0.000368404456496688
-0.000355161981420132
-0.0003857353373864002
-0.0003781071595148408
-0.0003691632741232989
-0.0003592395959175961
-0.0003486736417259063
-0.0003377854366200133
-0.0003656816866056065
-0.0003593610163532697
-0.0003519035496680109
-0.0003435703256383395
-0.0003346293700707019
-0.0003253413036026645
-0.0003529864837968552
-0.0003474590267419213
-0.0003409075764651091
-0.0003335492573781282
-0.0003256105906320363
-0.0003173159349860298
-0.0003468320707638204
-0.0003416792977040966
-0.0003355570270208798
-0.0003286620652806144
-0.000321201531528246
-0.0003133826181064107
-0.0003269812235299445
-0.0008472397340543571
-0.0007009178406722375
-0.0005945082130909265
-0.0005158757829387101
-0.0004571369585531341
-0.0004130966503549758
-0.0003802597220917826
-0.0003562460843099888
-0.0003394391660204965
-0.0003287708930230321
-0.0003235907859695005
-0.0007909702230758916
-0.0006629723644998439
-0.000568132699247504
-0.0004970549850243883
-0.0004433758966670363
-0.0004027799382200337
-0.0003723040566104296
-0.0003498989740097504
-0.0003341559343624703
-0.0003241356358699805
-0.0003192623397817739
-0.0007304779892499097
-0.0006212156959631696
-0.0005386581504137238
-0.0004757701744003881
-0.0004276542272591157
-0.0003908883341961514
-0.0003630628214689642
-0.0003424774502947273
-0.0003279452405589557
-0.0003186656152042854
-0.0003141439338083632
-0.0006694193941202658
-0.000578201043533019
-0.0005077534559988453
-0.0004531201728588285
-0.0004107148218899665
-0.0003779391429812614
-0.0003529079772528492
-0.000334259426643557
-0.0003210253203455251
-0.000312543819232679
-0.0003084021816077849
-0.0006109355111044219
-0.0005360297328725638
-0.000476847935342251
-0.0004300919051934568
-0.0003932517974908642
-0.0003644314257431173
-0.0003422081063402455
-0.0003255266748039071
-0.0003136217163840379
-0.0003059620995186555
-0.0003022131484651138
-0.0005570271204353012
-0.0004961878583973741
-0.0004470418919277966
-0.0004074965750783436
-0.000375865493632927
-0.0003508147209855034
-0.0003313065097488071
-0.000316549082675649
-0.000305955445034329
-0.000299111636144297
-0.0002957538799464454
-0.0005086548428792978
-0.0004595812511940399
-0.0004191002358560716
-0.0003859493019656853
-0.0003590410075012179
-0.0003374706807547877
-0.0003205065313522871
-0.000307573076868631
-0.0002982336720678337
-0.0002921750480106809
-0.0002891952047898324
-0.001114241160019651
-0.0009653402316690502
-0.000876259898921492
-0.000788178427585602
-0.0007058321320097753
-0.0006320883748047806
-0.0005677129631850724
-0.002024871501312573
-0.001293157870278669
-0.001774609477276324
-0.001143818440000799
-0.001413928209270224
-0.001138010674783858
-0.001211629274762558
-0.0009412157799920403
-0.0009708493426446951
-0.0008244858629602007
-0.0006257229568323082
-0.0005658004406015469
-0.0008322601837817393
-0.0007231417084429861
-0.0007178057883744633
-0.0006372729503059731
-0.02247159112815449
-0.01477405902424628
-0.008901453852417232
-0.005822238448081347
-0.003941143131840219
-0.002182550525122579
-0.0009900742538093989
-0.0009172606455408292
-0.0008356010952823193
-0.0007637137318221076
-0.0006923948764225499
-0.001659614608976548
-0.001456539669997516
-0.001682145287874129
-0.001393711566597875
-0.001079568578982342
-0.0009631709601547573
-0.001214099472857198
-0.001218595987473119
-0.001032374742556863
-0.0009102213878721251
-0.0008101562250601217
-0.009115592358734659
-0.007075738566573288
-0.005276205193038255
-0.003886728440984125
-0.002879909875778773
-0.00189660686018393
-0.005803582858474998
-0.005472657139279044
-0.004271668467129824
-0.003276942732868481
-0.002511431626299457
-0.001537230832751211
-0.003864330206921571
-0.003683263280946696
-0.003045365639864811
-0.002468452517306081
-0.001987810427038381
-0.001340846886769019
-0.002250764442067416
-0.002042417240233244
-0.001801630052608649
-0.001559419563351257
-0.00135818129668933
-0.001227561929623708
-0.0008489770202202991
-0.000702877550729661
-0.0005978500616081574
-0.0005208902109899163
-0.0004640230610907557
-0.0004221094947931789
-0.0003917374346633622
-0.000370628331722479
-0.0003572951313538803
-0.0003508400170396973
-0.001057077425027323
-0.001297034183597014
-0.0009242771521741966
-0.0007535871281061457
-0.0006311452263225593
-0.0005418602376959856
-0.0004759786823726048
-0.0004271031847097643
-0.0003909764421756259
-0.0003647375038864001
-0.0003464675679971237
-0.0003349121352863573
-0.000329313090438657
-0.0008917513699545077
-0.0007316706226718063
-0.0006159626288032484
-0.0005311200355473604
-0.0004682115594360371
-0.0004213448964116573
-0.0003865818992531204
-0.000361263383956077
-0.0003435974262774449
-0.0003324077168931779
-0.001238418519917588
-0.001054290686706816
-0.002222013381278368
-0.001344115180783824
-0.002084889628933753
-0.001343008778023047
-0.008968910858096469
-0.005385155421442326
-0.002410712950026801
-0.02447927016705741
-0.01575331082174023
-0.009755568213124927
-0.006225878329880028
-0.004143268614957427
-0.002251724653474296
-0.0366959495934547
-0.06984725237395381
-0.05142608869825486
-0.08973990344683491
-0.08009899285568668
-0.06126414733675511
-0.1141916181456891
-0.05955173266320352
-0.05657605111338213
-0.0008818293402547765
-0.0007224361441241649
-0.0006111466453391939
-0.0005303567741229008
-0.000470967295223317
-0.0004273604214578316
-0.0003958540073065857
-0.0003740048237781733
-0.0003602253928005632
-0.0003535602973457047
-0.001126073856108687
-0.001684971107024713
-0.00132911796758301
-0.009602964603979766
-0.006035139775431393
-0.003979576517573295
-0.002294616733297516
-0.02354003369740134
-0.001640301909642406
-0.001539730911874505
-0.001886460994022817
-0.001837854639479497
-0.001722268044580786
-0.001513686210586945
-0.001428988726412802
-0.001666368934855039
-0.001508174199181403
-0.001578989791614422
-0.001471216349737062
-0.001384134776886262
-0.001391027415764785
-0.001350210216043607
-0.0146484743903317
-0.01026493259059998
-0.01288279918273795
-0.01561652622092183
-0.01107059601885335
-0.008413127445723562
-0.01042251776313168
-0.01058737575934969
-0.009937180995820449
-0.00797230566731121
-0.007818579085042968
-0.009583361295467687
-0.006198152086178531
-0.007363469102131071
-0.00725447734531295
-0.006455517002755645
-0.005476462488461039
-0.005722007105336915
-0.006731776561975088
-0.00449337621190173
-0.005147571607744121
-0.004995504303073156
-0.004329600037618708
-0.003823573870683914
-0.004147129488177958
-0.004713394842313385
-0.003274511448067681
-0.003644085293355769
-0.003508927919834819
-0.003015963323692669
-0.002741477633733743
-0.003032519857279078
-0.003354046121138946
-0.002426791880614665
-0.002640944436285003
-0.002025298501639513
-0.002771884450347233
-0.002534407204356415
-0.001968472846995911
-0.001839132519559336
-0.002259281117350572
-0.002447121107576905
-0.00157194815412891
-0.002076954113290364
-0.00195317235624325
-0.001490836606976733
-0.001571836446043624
-0.001945058757033343
-0.001833313484560294
-0.00154066921149727
-0.001896360074611272
-0.001788916288066129
-0.001738615569835916
-0.001652815145114919
-0.001491140308715118
-0.001449427252029817
-0.01134525472434884
-0.006471065290402077
-0.007621026455131902
-0.00757676539343992
-0.009202614503567946
-0.006469419907106129
-0.005576687655210345
-0.008518042080516914
-0.005689557078964918
-0.006670839301993504
-0.006085850871367197
-0.005274535236638246
-0.004999132441715707
-0.004405193080425446
-0.00613447521340009
-0.004195343923002163
-0.00476567292889873
-0.004667366191528557
-0.004135440673921551
-0.003781462096691074
-0.003403722316238148
-0.004384145375706086
-0.0031003235217773
-0.003431554702976059
-0.00352330555487777
-0.003187080911020155
-0.002854113303424893
-0.002617424956021613
-0.003169781315525338
-0.002323395859426763
-0.002519449997281475
-0.002663457226972882
-0.002452815113781375
-0.002175427066903769
-0.002026528088083194
-0.001776361233229627
-0.001595112576574953
-0.001681381465262692
-0.002168229945178257
-0.002340926900493085
-0.002037347265863156
-0.001904914178348867
-0.006738729587360948
-0.004259484333970322
-0.004783097401021993
-0.005792022188908058
-0.005052805200951626
-0.004238827475293101
-0.003806053959915536
-0.004796451436713458
-0.004555564368363836
-0.004050465754461683
-0.004049323098190579
-0.003646950507389412
-0.003486285747433451
-0.003170101661162047
-0.003816283079018735
-0.003503654792763188
-0.003174006412775457
-0.003305752043302504
-0.003015791839417378
-0.002800542283187944
-0.002579904066447755
-0.002981747584512546
-0.002682609712580087
-0.002471220954455235
-0.002646289947357987
-0.002445504528642939
-0.002229715466377363
-0.002078585794955303
-0.002322260657814392
-0.002069219065266212
-0.001933198717238452
-0.00210637144999884
-0.001968390826435956
-0.001781162298502555
-0.001672218508958913
-0.001610309707315427
-0.001413012792527533
-0.001437384859822382
-0.001942863662620094
-0.00182132586485262
-0.001686691851168432
-0.001584316110667025
-0.004301232988526295
-0.002934156754289693
-0.003196339340508197
-0.003843896129976315
-0.003478349900018092
-0.00291738270609848
-0.002691171339115397
-0.003341863463945681
-0.003201409489962241
-0.002929313194764483
-0.002817202725484998
-0.002603529519978173
-0.002509119084628441
-0.002332760614915825
-0.002794635163369321
-0.002604404790843705
-0.002410874116862802
-0.002406729056757569
-0.002242353449374549
-0.002109968728937979
-0.001978747568503178
-0.002291497574682502
-0.002098196349245438
-0.001962648806406037
-0.002016246781051501
-0.001894773850181581
-0.001756151200480798
-0.001656064312627179
-0.00186284236456478
-0.001695620303929943
-0.001591772111404289
-0.001678328493059794
-0.001580027554903435
-0.001467443279427151
-0.001430462697052234
-0.002108527273590554
-0.002691263050230325
-0.002914633493588818
-0.002098429923142346
-0.001971450274871804
-0.002676071979795547
-0.002481663977356217
-0.001921002697802138
-0.001863874449191026
-0.001763733694501946
-0.002589849486225496
-0.002405638926502494
-0.002322681174388897
-0.002169369674377271
-0.001710998958668895
-0.001613098568901235
-0.00155314148648778
-0.002233163369860687
-0.002090018096213379
-0.001971848164260841
-0.001857114989922062
-0.001501534403042392
-0.001461290017341171
-0.001415835804012477
-0.001888968528968669
-0.001782361488536126
-0.001658750572599287
-0.001565734485696716
-0.002415042923408803
-0.002123328085492625
-0.002298814062939955
-0.001892917060027831
-0.001766061703180656
-0.00181832962917481
-0.001701028123546493
-0.001427352768325006
-0.001201732098091219
-0.001441591074707786
-0.001756000559177038
-0.001643334468133543
-0.001691582157616795
-0.001585768972317888
-0.001679483472831326
-0.001576830893692116
-0.001938844954096215
-0.002081960726944459
-0.002250465115303955
-0.001787171534025593
-0.001673805131930502
-0.001295283828559041
-0.001570089421160485
-0.001477198860131251
-0.001329117443742295
-0.001394363118871111
-0.001664369224769313
-0.001562383762634099
-0.02528843760190807
-0.02753388119288782
-0.02172343024977051
-0.01508258889521741
-0.01046308516681334
-0.01034185922252928
-0.008071397953362968
-0.01400158542054205
-0.01020074238222391
-0.008983482020334025
-0.007217631130718347
-0.00717309831457527
-0.006068024925739121
-0.005130132426283382
-0.007891302274030983
-0.006464165256653542
-0.005502260324436177
-0.004718212352324271
-0.004617835000568333
-0.003870811256581402
-0.003433046361303351
-0.004921745353947841
-0.004271601159463232
-0.003605907682818577
-0.003222587963419457
-0.002635680677492527
-0.002296620607407868
-0.00249988798409169
-0.003496749699898871
-0.003129149060615313
-0.00327428777345189
-0.002949506921921769
-0.01548954839233989
-0.03223119456381339
-0.02782261746209253
-0.01669383584656835
-0.0116116917112923
-0.02993573084783741
-0.02301634533516923
-0.01109959138693797
-0.01097541159267238
-0.008638836212207353
-0.02222870725368361
-0.01892621267292214
-0.01446716930778757
-0.01015093816930132
-0.007821894747638813
-0.006939858627496635
-0.005826024272537854
-0.01265279138309394
-0.009611929189145474
-0.008473387852250189
-0.006882590503390621
-0.005293555134917534
-0.004568514368738565
-0.004010383747560265
-0.007480971553366624
-0.006184417516980301
-0.005279390221192908
-0.00455246438079246
-0.003669502388221967
-0.003141102292258291
-0.002844960878669779
-0.004737534956717949
-0.004131459568626061
-0.003498259152933022
-0.00313607670810659
-0.002084980036679509
-0.002879293746142568
-0.002624240597966239
-0.002248958204744961
-0.002443585539101521
-0.003183347629743971
-0.002875333442989985
-0.03997206579277345
-0.04906333662325265
-0.03621753022496036
-0.03635443706249997
-0.04584835784377526
-0.03673155964620398
-0.03208786621963045
-0.02850281742248119
-0.0342525341207121
-0.02918311271118027
-0.03095583949201785
-0.04850804413650077
-0.05448469644614001
-0.06801274718197538
-0.0759281512621174
-0.06048180656661618
-0.1075582236586591
-0.09539767109338103
-0.09006751990547238
-0.1148329740899588
-0.05733495234724471
-0.06724317786774198
-0.1071333831459494
-0.05576137868685405
-0.05517037313786694
-0.07630034813245254
-0.06096764012905955
-0.04041274109509403
-0.03996936085873624
-0.05066667124138457
-0.03999092352574173
-0.03467761718854125
-0.06869934740010238
-0.05588325058731219
-0.1352058276954273
-0.146362398909505
-0.1140710505709815
-0.1221759668835977
-0.1027965596351743
-0.07144661944748448
-0.08656766121057773
-0.08249188345665164
-0.1026096298448697
-0.1280086698425769
-0.1087804524198788
-0.08635937094506996
-0.08171129957866152
-0.1017289341723339
-0.1210255401950314
-0.1036242690765354
-0.07566963572470779
-0.08279704304691048
-0.08878687301935556
-0.1026618337725293
-0.09168916714512804
-0.07577127871928878
-0.0937664680670562
-0.08654587758102135
-0.08821365667672693
-0.1095872158524318
-0.09816353114954286
-0.06630379470615917
-0.06689794089392749
-0.07300315521281515
-0.08320532168773602
-0.0791813669404054
-0.08464431631312244
-0.106593348762847
-0.1276067050630987
-0.1378536168546265
-0.1085880447904523
-0.09868470473038522
-0.0926573424798177
-0.1162474721125612
-0.06516234234381503
-0.07415550090082837
-0.04696434855753903
-0.05276278398612714
-0.06232906859244738
-0.07603805440827842
-0.07721852609706449
-0.04768674161402063
-0.08000476809687934
-0.07374060579496088
-0.05688342443949495
-0.06136423946327587
-0.07436737523343731
-0.04720748491373896
-0.05384347975597911
-0.06076836121092883
-0.06129699486941027
-0.07145080703213437
-0.04634737010255056
-0.04768480294604856
-0.04921636021662881
-0.04875556463824218
-0.001592208582289671
-0.002114745449075567
-0.001987256599766912
-0.01206655195369957
-0.006749603140775895
-0.007984581652484928
-0.007033990987305095
-0.00439584586465937
-0.004947935276801101
-0.004438626585257836
-0.00300537957214093
-0.003278436976096713
-0.002147849898161123
-0.002752373645428481
-0.00298442843067864
-0.02571092643661422
-0.01606041949941395
-0.05178961505633438
-0.03699332900013645
-0.01517196838178527
-0.009891979078833331
-0.01333929481908627
-0.07144169555932799
-0.0566749037464596
-0.06947679345666893
-0.1425498977953161
-0.1548553964454616
-0.1067724082645148
-0.134645398279527
-0.0932473599847401
-0.08475265126202167
-0.1061275815088799
-0.1270059021335301
-0.1194887390358193
-0.1113385622821803
-0.1341730330193899
-0.1453666047572277
-0.03569856101279606
-0.03271534984574766
-0.03305368645170834
-0.02924764118436313
-0.02673508215864817
-0.02822664292620332
-0.04996981091096626
-0.06191560867427764
-0.04805128964959685
-0.05219281358746393
-0.04256160038654445
-0.0622909251234658
-0.05174291964166058
-0.03623929190605966
-0.03575791087127145
-0.03144337315929031
-0.04832827689729621
-0.07627313115776961
-0.05282976425016569
-0.06386128200444662
-0.001809767057333883
-0.001883040700913707
-0.002001301404097361
-0.001963380709842092
-0.001941152497591779
-0.001862206309162245
-0.001829481166008769
-0.001253742928658986
-0.001536264225274846
-0.001441498395824343
-0.001198708941323122
-0.001236651572317951
-0.001394435062714596
-0.001348512802612456
-0.001594208839592075
-0.001756731340758949
-0.001711021182229372
-0.001663918953479921
-0.001648235883329569
-0.001695083089615056
-0.001607839490856737
-0.001178481093566392
-0.00108586916194573
-0.001115520547113094
-0.001320598897318666
-0.00128093525443016
-0.001243128314477157
-0.001207026256937903
-0.001509338213031889
-0.001309670151852215
-0.001341180694617085
-0.001293717046180764
-0.001261960888094257
-0.001211484308976119
-0.001180255276761977
-0.01443192285655255
-0.02057072114594484
-0.01756045132360359
-0.01935842419951575
-0.01784545724725969
-0.01631948530057008
-0.01545510367803577
-0.01063581185704242
-0.01378556394079321
-0.01240476313797384
-0.01222767812442395
-0.01174884821156875
-0.01190456454711784
-0.01104535604506387
-0.00711562642429199
-0.008607716050462597
-0.00798385625378455
-0.008112854246371643
-0.007864534252187579
-0.007738588342490228
-0.007325443033109651
-0.004826587285736565
-0.005677417595254867
-0.005262637058187929
-0.005433867901048631
-0.005306256230809278
-0.005140456531331244
-0.004935139889829321
-0.003367002236221652
-0.003866374907506955
-0.003596200400795368
-0.003741050591046866
-0.003673214785529613
-0.003532305105720433
-0.003425317371560981
-0.002248039178169711
-0.002155732066799314
-0.002358033172588272
-0.002111901262080685
-0.002086718211487234
-0.002327351679610395
-0.002276724303583243
-0.001736430719545558
-0.001645068017513625
-0.001783465141040734
-0.001631536418650816
-0.001617596665485884
-0.001767131834111135
-0.001752156331059901
-0.001574538475255178
-0.001511379736812862
-0.001555843565480391
-0.001482131011530659
-0.001606173915547234
-0.001513385595675488
-0.001517644560663834
-0.001607907805881402
-0.001495281771507184
-0.001467425049277848
-0.00140676935691216
-0.00137269924784094
-0.001319794089318189
-0.001295790776675049
-0.001364775173446435
-0.00130432827725083
-0.001271806437283754
-0.001242139565740706
-0.001218487931341075
-0.001166596778796357
-0.001144884327527814
-0.001181893249220153
-0.001336951181324138
-0.001374778897893657
-0.00116439942989486
-0.001136282857896199
-0.001312913773677286
-0.001277749995799877
-0.008470212966215567
-0.01019326816528538
-0.008111732019711054
-0.00860413514371797
-0.009578950863184159
-0.008967224747751036
-0.007689048552640943
-0.006507112298338431
-0.007769788501720456
-0.006591636489023579
-0.006407973623963094
-0.007205461175879458
-0.006980055833360759
-0.005996738151505034
-0.004839059351184799
-0.005692314396777382
-0.004889411041661389
-0.004863831532033812
-0.005253424608921516
-0.005218752909784147
-0.004526071216004503
-0.003572725493307781
-0.004129438139527793
-0.003602267484193401
-0.003639617103800244
-0.003814335322449888
-0.003852964765676531
-0.003385067673090685
-0.002660561490886634
-0.003022088439081155
-0.002677897570000469
-0.00273202009646851
-0.002802643230801462
-0.002860104995217088
-0.002547583927594738
-0.001929186711098162
-0.001876420657540669
-0.001824906026800413
-0.002030900790005584
-0.00180668520204419
-0.002008065843754457
-0.001949981664909401
-0.005363956444070106
-0.006257008798709016
-0.005219889709105126
-0.005559982028135338
-0.005982070744379378
-0.005592144029405621
-0.005015682367486831
-0.004581075201500692
-0.00535494146574606
-0.005158179967662977
-0.004935651425097922
-0.005051151147551386
-0.004837417928464642
-0.004670951889391043
-0.003621115908301787
-0.004192923311785756
-0.004001254369763843
-0.003915420178373661
-0.003930545607281784
-0.003848023987623345
-0.003682012838885616
-0.002821965771998243
-0.003226233314150759
-0.003064802425373467
-0.003049387748922704
-0.003019493848956768
-0.003004922617129076
-0.002861925062480944
-0.002198763971709616
-0.002479114394822804
-0.002352644520666811
-0.002367975653243813
-0.002323746742901365
-0.002338958801075203
-0.002224885241419452
-0.001604181216473574
-0.001581632399968332
-0.001476259380715241
-0.001623065903630806
-0.001520843811185981
-0.001672339813966693
-0.001556125529404691
-0.003581678443368907
-0.004078035009608154
-0.003515735798449322
-0.003741223162315514
-0.003943659438869622
-0.003695353238208963
-0.003410948533807536
-0.003174729159226823
-0.003624543664592754
-0.003521622059491977
-0.003359482124763257
-0.003467050635962467
-0.003309578236893829
-0.003221307988117457
-0.002643933131932611
-0.003002433395870628
-0.002893371176456561
-0.002810496662219601
-0.002853956814436622
-0.002773368738814216
-0.002678166218995711
-0.002165444045193195
-0.002438280484956744
-0.002338637245937089
-0.002304899827802143
-0.002311069524403245
-0.002278331143565232
-0.00218986784980181
-0.001765913681627225
-0.001966436469362959
-0.001884024219183601
-0.001877055368459156
-0.001864247157397668
-0.001857454710883719
-0.001784237346157607
-0.001380871078301338
-0.001228711650115971
-0.001266452137829415
-0.001610242907555563
-0.001509210401647126
-0.001393731265152263
-0.001350977151790474
-0.002363766265650373
-0.002226562314315807
-0.002446065675076853
-0.002203097739672474
-0.002179739580506831
-0.002418052962905056
-0.002390740302067752
-0.002116574408795109
-0.002021936034153376
-0.001984488739207883
-0.002205203050217426
-0.001965187874781497
-0.002181694993268882
-0.002138777857067246
-0.001847309407410767
-0.001787700013556944
-0.001738232833759736
-0.001932419727693252
-0.001727097367644692
-0.00191506868456062
-0.00186267164854654
-0.001587575452988946
-0.001550861077690689
-0.00150573642161039
-0.001662061262230269
-0.001493426575747442
-0.001649985346794675
-0.00160032831917441
-0.001301011271437123
-0.001252910349904093
-0.001211988030212634
-0.001591508568461764
-0.001494578491573087
-0.001389621376867804
-0.001328203181887035
-0.001256469133771228
-0.00147702962124701
-0.001427011050876992
-0.001257304802613642
-0.001222186559772691
-0.001384170141486365
-0.001428100913368845
-0.001280426642810478
-0.001201922456754483
-0.001261064564650777
-0.00109215701825279
-0.001126329328155337
-0.00107217692678111
-0.001107701660424337
-0.001026328951401465
-0.001186411155244325
-0.001149883921253622
-0.001180384011278223
-0.001224033098862229
-0.001051582595956866
-0.001083348886163388
-0.002108759370229227
-0.00231695079518406
-0.002193776280001438
-0.002053326600638304
-0.002135302073033409
-0.002286198316105307
-0.002028853711323744
-0.001468507984787334
-0.001393972175487542
-0.001379382166704791
-0.001430940133139469
-0.00141022206975995
-0.001480658016962891
-0.001409588159533055
-0.001962475810353904
-0.001935165832421187
-0.002059994596933096
-0.002142894790674693
-0.0019132588832774
-0.002116685805547643
-0.001985436317546395
-0.03020350962213023
-0.03285651329215704
-0.0222848361537803
-0.02481992813780647
-0.01177428389806991
-0.01616346169661105
-0.01489994200072551
-0.01280452707202031
-0.007331402567965647
-0.008647880579304039
-0.007828043878934678
-0.008645605517006612
-0.007573298478184476
-0.00834512651404189
-0.0075709441982815
-0.004585197265692263
-0.005250860117232992
-0.00480239508271763
-0.005249062005278922
-0.004692183362558634
-0.005121084282882059
-0.004690606478847809
-0.002709890613820749
-0.002521242994010604
-0.002378020602108841
-0.002622395244865027
-0.002485449083804855
-0.002751726618634649
-0.002584421985150371
-0.02393583241746033
-0.02227782159449814
-0.03197278215511164
-0.0209164933616193
-0.01918676042471832
-0.02848995011980745
-0.02655160049321435
-0.01453379139711567
-0.0146460258523829
-0.01319492190562096
-0.01911920600245761
-0.01237118483796021
-0.01756136003875559
-0.0156698201682317
-0.009101497137942954
-0.009407944586521647
-0.008688534900796064
-0.01067205502226476
-0.008402275545399858
-0.01025906472017914
-0.00943497984267834
-0.005791455974513622
-0.006062090728915587
-0.005600262115035394
-0.006640721996872206
-0.005463239741014374
-0.006456294517394031
-0.005944434895539532
-0.003862556127284164
-0.004061172207022232
-0.003767844781341348
-0.00434518197831407
-0.003698099953169304
-0.004255438242453463
-0.003938355086582207
-0.002480865428055241
-0.00222326763335156
-0.002437917291721735
-0.002318765717832989
-0.002405217552447848
-0.002288675104658349
-0.00251558739903553
-0.04200749289538462
-0.04640223523841158
-0.04568592133333511
-0.05075454151489075
-0.03369650463693583
-0.03911172317679319
-0.03578137719599218
-0.03620816583068986
-0.04238763294964179
-0.03858622395436603
-0.03960914405177549
-0.05133583521190761
-0.05686397187518746
-0.06304871531871618
-0.05650623010829151
-0.07019305015038416
-0.06762071971924057
-0.08320653226919782
-0.06501507029865472
-0.06300476759614541
-0.0787512715126872
-0.07398318869497407
-0.05046243041817271
-0.05004125141033809
-0.04734098617829041
-0.05669232756622764
-0.04612730538703961
-0.05505158608478371
-0.05188461935270946
-0.07677777442912502
-0.08301476287843264
-0.08086539357495294
-0.09392351660812261
-0.09467908358985248
-0.1039754656891213
-0.09018633467364792
-0.0994554862792854
-0.08624125136765889
-0.09884287395400147
-0.08786535800878031
-0.08397519232067523
-0.07936810173191898
-0.08446102811246518
-0.08319377720478016
-0.08366684858806663
-0.08872223740574932
-0.06378017813067066
-0.06406683585516641
-0.07189799303295538
-0.06570505771703328
-0.06855350674974359
-0.06889862741258081
-0.06673176206737351
-0.114479619090216