/*--------------------------------*- C++ -*----------------------------------*\
  =========                 |
  \\      /  F ield         | OpenFOAM: The Open Source CFD Toolbox
   \\    /   O peration     | Website:  https://openfoam.org
    \\  /    A nd           | Version:  7
     \\/     M anipulation  |
\*---------------------------------------------------------------------------*/
FoamFile
{
    version     2.0;
    format      ascii;
    class       volScalarField;
    location    "0";
    object      Phi;
}
// * * * * * * * * * * * * * * * * * * * * * * * * * * * * * * * * * * * * * //

dimensions      [0 2 -1 0 0 0 0];

internalField   nonuniform List<scalar> 
12677
(
28.353105945649
28.35306878847683
28.35307747174498
28.35308459786813
28.35309034374768
28.35309489555029
28.35309843295247
28.35310111915999
28.35310309489133
28.35310447494054
28.35310534633239
28.35310576740626
28.35307837470359
28.35308468832867
28.35308990680021
28.35309413492843
28.3530974931665
28.35310010448057
28.35310208512096
28.3531035383503
28.35310455030995
28.35310518738002
28.35310549456182
28.35308600872671
28.35309047996952
28.35309418553072
28.35309718836065
28.35309956775117
28.35310140914039
28.3531027963619
28.35310380594379
28.35310450303674
28.3531049385962
28.35310514751937
28.35309198762273
28.35309504015626
28.35309756036807
28.3530995880161
28.35310117741158
28.35310238979267
28.35310328713818
28.35310392732981
28.35310436049211
28.35310462632239
28.35310475224283
28.3530965865084
28.35309855870501
28.35310016277887
28.3531014264314
28.35310238934046
28.35310309754448
28.35310359862541
28.35310393774586
28.35310415451054
28.35310428058317
28.35310433798134
28.35310004721406
28.35310120961744
28.35310211836238
28.35310279547313
28.353103272413
28.35310358594099
28.35310377438096
28.35310387441692
28.35310391845691
28.35310393256571
28.35310393494647
28.35310257289301
28.35310314374782
28.35310353937419
28.35310377956502
28.3531038914136
28.3531039061969
28.35310385644885
28.35310377335283
28.35310368452804
28.35310361224695
28.35310357209833
28.35310432595231
28.35310448458515
28.35310451981125
28.35310445086908
28.35310430268433
28.35310410343128
28.35310388216226
28.35310366663191
28.35310348140268
28.35310334628713
28.35310327516023
28.35310542766456
28.35310532595401
28.3531051322779
28.35310486596383
28.35310455096266
28.3531042138181
28.3531038816423
28.35310358021716
28.35310333231073
28.35310315627229
28.35310306494855
28.35310595848056
28.35310573083975
28.35310542606586
28.35310506365491
28.3531046672003
28.35310426255361
28.35310387596539
28.35310353232133
28.35310325356301
28.3531030573597
28.35310295607758
28.35310245529857
28.35310425701855
28.35310539530112
28.35309636671177
28.35309987617523
28.35305840411488
28.35307089471803
28.35308073806291
28.35308838653648
28.35309423667423
28.35309862290261
28.35310181742436
28.35310403269583
28.35310542459093
28.35310609527017
28.35303287974408
28.35304639366328
28.35306234246119
28.3530747545537
28.35308430573678
28.35309155814565
28.35309696732696
28.35310089287853
28.35310360899149
28.35310531339195
28.35310613413843
28.3530569521409
28.35306865219383
28.35307815326136
28.35308575156144
28.35309173501097
28.35304277666841
28.35295405083279
28.35296940854438
28.35298577448462
28.35300193405232
28.35301790803252
28.35299969332658
28.35300958584211
28.35302040969846
28.35303150737914
28.35304246311422
28.35305284356918
28.35303236152766
28.35303885497198
28.35304606129775
28.35305356614102
28.35306103042224
28.35306816499806
28.35305592717893
28.35306019663023
28.3530649717785
28.35306998625183
28.3530750044531
28.35307982818387
28.35307294804196
28.35307572716772
28.35307884725609
28.35308213606632
28.35308543566896
28.35308861141288
28.35308516661829
28.35308693820209
28.35308892700098
28.3530910212242
28.35309311634112
28.3530951221223
28.35309378482471
28.35309487875375
28.35309610029047
28.35309737645748
28.35309863835429
28.35309982620905
28.35309962776253
28.35310027854329
28.35310099515816
28.35310172904358
28.35310243427314
28.35310307118185
28.35310324513581
28.3531036284042
28.35310403885533
28.35310444223466
28.35310480630042
28.35310510357232
28.35310497376569
28.35310523109091
28.35310549701809
28.35310574390552
28.35310594589505
28.35310608124945
28.35310437665929
28.35291248318279
28.35296824825032
28.35300847941421
28.35303775607531
28.35305914499874
28.35307475900656
28.35308607180123
28.35309411491721
28.35309960384656
28.35310301888272
28.35310465586574
28.35293547702521
28.35298355928341
28.35301872221418
28.35304461468895
28.35306371760979
28.35307777296102
28.35308801935563
28.35309533853358
28.35310035058664
28.3531034762138
28.35310497649998
28.35295988739439
28.35299992386648
28.35302978911361
28.35305209856054
28.35306874334712
28.35308109882158
28.35309016834556
28.3530966809763
28.35310115787204
28.35310395705531
28.35310530268146
28.35298371395049
28.35301624809597
28.35304098796616
28.35305975127027
28.35307391888909
28.35308453497917
28.35309238481424
28.35309805286573
28.35310196487968
28.35310441752763
28.35310559841692
28.35300584587329
28.3530317075085
28.3530517512617
28.3530671854406
28.35307898050148
28.35308790270961
28.35309454832212
28.35309937320721
28.35310271644066
28.3531048180326
28.35310583142685
28.35302556846585
28.35304575206816
28.35306167303366
28.35307410903978
28.35308372187307
28.35309105860956
28.353096560749
28.35310057569257
28.35310336767017
28.35310512686097
28.35310597626873
28.35304260287106
28.35305809565809
28.35307050963325
28.35308033109113
28.35308800057628
28.35309390038291
28.35309835104194
28.35310161245093
28.35310388692214
28.35310532260748
28.35310601648225
28.02756200657046
28.35286868395365
28.35290607638985
28.35294099756137
28.35297269644727
28.35300024366926
28.35302352635889
28.84056635218725
28.67800407366107
28.84059302430951
28.0275471161122
28.02739619188687
28.02756015841686
28.02752636117791
28.35288550223488
28.35287953564534
28.35293104663624
28.35300704736498
28.35302612380155
28.35293188450944
28.35296922578095
28.35297387583446
28.35300067688029
28.92088694995294
28.92127712371137
28.83986143911127
28.84017861751276
28.84037210706538
28.84055063133736
28.35288928189464
28.35291426214384
28.35294002628176
28.3529620723749
28.3529854737644
28.84061842773144
27.86476625412458
28.84061285940424
28.6779994609862
28.02763801104145
28.35288657279404
28.67804178258553
28.02756188229716
28.0276570551262
28.35290561165423
28.35294248019663
27.85828846822129
27.86005184193401
27.86158135329725
27.86273658712184
27.86355540179955
28.84058125732809
27.86136185720003
28.84024993643039
28.84036128185362
28.84045445313619
28.84052642665219
27.86463074841454
27.86296912687832
28.84042709010467
28.84048406523862
28.84053588551161
28.84057915720546
28.0274542287687
28.84056481100252
28.84058218055014
28.84060197163659
28.8406232683069
28.67800871658525
28.02752751306191
28.35294169614778
28.35299164230414
28.35302705611083
28.35305244116325
28.35307068190567
28.35308372159599
28.35309288914148
28.35309908963915
28.35310292210573
28.35310475178477
28.35286922397939
28.67802908746275
28.3528765127961
28.35294515056176
28.35299341532264
28.35302783838422
28.35305260512823
28.35307047527629
28.35308330830639
28.35309237172111
28.35309852711835
28.35310234428095
28.35310417055191
28.35289185819543
28.35295496169677
28.35299977593601
28.35303200383649
28.3530553413243
28.35307226332961
28.35308446085885
28.35309309945821
28.35309897817013
28.35310262872273
28.02747280331248
28.67805227091614
27.86401129408183
27.86473698203107
28.84055977828227
28.67799277402528
28.83980028948485
28.84020249525456
27.86384939092128
28.92077429193844
28.92122048640224
28.83976360094348
28.8401324396
28.84034918633362
28.84054302018803
28.41760138762671
28.91799502669805
28.91908597336091
28.33214435702216
28.96009926335372
28.35793338771036
28.95887137360764
28.07156163035358
28.27271408865787
28.35293475111054
28.35298623746712
28.35302334091354
28.35304997773697
28.35306907817412
28.35308269804224
28.353092252808
28.35309870458272
28.35310268783735
28.35310458824689
28.02760763200017
28.8406162202122
28.67802219784259
27.85785937092891
27.86118323433218
27.86288630257535
28.84056114941209
28.92083356115861
28.8406044392117
27.86459855957252
27.86432288777332
28.84058639438775
27.8644681613437
28.84061886771829
27.86469399530954
27.86451654789241
27.86464962666192
28.84061228866866
28.84062394205118
27.8647261340275
28.67798784170761
28.02742775042417
27.76871089153094
27.8571089267271
28.92140551904442
28.92123326739109
27.77326427166306
27.85878209150859
28.83974200010847
27.77384475675074
28.83975512524594
27.85887364223755
27.85931247148368
28.83982323358972
27.86073979433464
28.84004000582501
27.85956713815188
28.84011333306819
27.86122869315781
27.86115286874669
28.84010219871739
27.86220298698708
28.84025897641137
27.8616642324814
28.84033225283555
27.8626994440646
27.86249442484597
28.84030209389924
27.86321911534876
28.84040837167802
27.86297085972611
28.84046656828546
27.86362068239235
27.8634174274171
28.84043717186908
27.86390833922045
28.84050775915491
27.86421057918511
28.84049132388701
27.86379294494571
28.8405736957396
27.86437637720145
27.86404264391552
28.84052684890952
27.86469164170135
28.84058049262813
27.8644224867724
27.86474665521673
28.84062577217617
28.84059142240546
27.86450253245956
28.84062874246208
28.8405954487187
27.86453210730355
28.84060836340905
27.86462512776769
28.67798902364786
28.0274297297916
28.83966668219418
27.86077725673113
28.84004637849117
27.85962111094002
28.8398705936118
28.84015229744795
27.86148389187344
28.83993609043215
27.86123293378393
28.84011433367779
28.84018787812339
27.86172242818161
28.84028945244166
27.86240730049124
28.84016650256623
27.86248233015776
28.84030034789673
28.8403206756436
27.86261917293397
28.84040446476003
27.86319169429596
28.8403377965662
27.86337763340677
28.84043140850412
28.84042897166352
27.86336045703426
28.84049258597966
27.86380220847276
28.84045711929559
27.86400019570285
28.84052081002793
28.84051070495904
27.86392924566641
28.84055695103472
27.86425682040771
27.86443113616008
27.86458614661013
28.84060307858916
27.86412312834116
28.84053820958367
28.84056996064414
27.86434994397303
28.84013422638504
27.86265239841319
28.84032590254185
28.84022057943249
27.86194148234049
28.84037440845297
27.86298375210059
27.86213943988306
28.84033483374721
27.86271504185688
28.84039138827239
27.86310023639403
28.8404420922383
27.86344988870612
27.86289546331486
28.84043316219999
27.86338916010596
28.84045842250243
27.86356317348745
28.84050426343732
27.86388338647784
27.86353652630414
28.84051033661938
27.8639266088629
28.84051828884202
27.86398214181227
28.84055619386244
27.86425150828522
27.86404002283958
28.84056787647402
27.86433522146734
28.8405674210941
27.86433218482174
28.84059703496663
27.8645475214649
28.84061016448701
27.86478165695928
28.84062255986734
28.84057965550698
27.86441987999809
28.84060568263504
27.86461064597506
28.84037236786914
27.86369308521333
28.84047738485778
28.84041281735767
27.86324710311779
28.84050147785245
27.86386195877301
27.86334560509175
28.84047008873704
27.86364392264107
28.84051014822467
27.86392301169386
28.84053685393394
27.86411214172963
27.86374147595943
28.84052365928595
27.86401980147514
28.84054573911281
27.86417547248333
28.84057151660742
27.86436064637905
27.86410645130771
28.8405692084102
27.86434492357402
28.84057966596577
27.86441975332565
28.84060238602018
27.86458667157366
27.86441699251892
28.8406056230043
27.86461041545768
28.8406093139001
27.86463802370001
28.84062698706653
27.86478041568228
27.86430955600444
27.86387708098816
28.84050372913941
28.84057752034406
27.86440173509993
28.84052415943739
27.86402136447484
27.86443570849116
28.84059690184838
27.86454284255153
28.84053155130218
27.86407381933013
28.84055446022253
27.86423733492196
27.86457924253073
28.84061751698525
27.86468840680682
28.84056213466632
27.86429245292828
28.84058456825305
27.86445484265484
27.86472587014577
28.67798799749933
28.02742838498412
28.84059170557356
27.8645070780523
28.84061183556616
27.86465658285878
28.84052266642266
27.86410509621087
28.84053591204488
28.84057661272337
27.86439469949476
28.84058491899957
27.86445504990139
28.84062512115531
27.86516969105939
28.84062675119619
28.84059058737294
27.86449577448941
28.84059781732195
27.86454861498392
28.84060007331717
27.86456657823793
27.86427557320166
27.8641438677718
28.84054136295369
28.84058833462418
27.86448003614953
28.02744018666339
28.8406109712778
27.86464489530409
28.02740942093143
28.67798292755329
28.8406008584721
27.86457034754486
28.08729290233089
28.42222635823395
28.09215734254823
28.92121730688115
27.77305154375626
28.83964301644209
27.8581554474964
28.92128150920143
27.85589297818771
28.83981427848318
27.85926326407118
27.85917358339965
28.84012691718883
27.86132084153237
28.83993477797836
27.86005107926687
28.84019572643318
27.86177964644908
27.86182517100139
28.84036783647536
27.86294151694956
28.8402584316218
27.86220055369379
28.84039914005287
27.86315555553509
28.84049956646525
27.86395897383398
28.84051516250665
28.84040809397959
27.863216751036
28.84043420070425
27.86339639588518
27.76727070367249
28.42053019805643
28.08679406969474
28.92117186663476
27.77245297947655
28.42162343248263
28.09157557698616
27.77309851493179
28.83963645229619
27.85810550018953
28.42521597752062
28.09537945974482
28.92126082656105
27.77356451134925
27.85892994941976
28.84005785438749
27.86086081894669
28.83941805865967
27.85671354234049
28.83987656898503
27.85966933577332
27.86135628898271
28.84030508485828
27.86251527430796
28.83998457928647
27.86037811014734
28.84022229439362
27.86195759129615
27.8628146289684
28.8404525298042
27.86352331735303
28.84028026480066
27.86234768040098
28.84041167879115
27.8632415985789
27.8641562755838
28.8404793275827
27.86370921379702
27.86400407192654
28.84052155600334
28.8404447296597
27.86346910558793
28.4149515597562
28.91903276067277
28.9198909603174
28.41708217098611
28.91929330528228
28.91995932238763
28.42040420012678
28.92044370927622
28.92003967040016
28.42166851245164
28.42061190470966
28.40966205013435
28.91865955405134
28.3502557631862
28.96025979023961
28.40245627187263
28.68992844972517
28.95927720375419
28.69559864435156
28.9584360436693
28.40755122791474
28.35618407587075
28.95919647416823
28.91882812706025
28.40796346901639
28.96028113103938
28.40298749189297
28.41624263303836
28.41583732752014
28.91897639282482
28.91976614883454
28.41912383337615
28.91776916089647
28.40614918220324
28.68071568888422
28.95705802282643
28.68777496028661
28.95811501259823
28.60094060784069
28.34716045359973
28.60805124814542
28.33653327248402
28.31227273186623
28.58944806867841
28.59824870280061
28.33256272810057
28.34196662142827
28.60461147173745
28.59399916593648
28.60146452838962
28.34680827002754
28.33732769860701
28.60936336092109
28.69219064699992
28.95950343378332
28.70116757550997
28.95960554762172
28.69713532477882
28.69783721599633
28.95877129756795
28.60377812840246
28.35287980594505
28.35369286604309
28.61510290169613
28.60998783101012
28.34077170384949
28.61087642145584
28.69285984492561
28.68437208160269
28.95760655227475
28.69034369556021
28.95942864492168
28.69663637545272
28.95849683567301
28.26090887111085
28.24941333139146
27.99142147349694
28.08577141512334
28.04875230929645
28.13563857653422
28.24514106044755
27.98660609748508
28.24466570389471
28.25525699461618
28.08323896061918
28.174642530879
28.25027376816109
27.99239429288339
28.08917107731636
28.26715767191331
28.26804092458596
28.25399392068005
27.9966418187133
28.1003504359274
28.09767955514528
28.09670279488514
27.86467484492618
28.84057736220842
27.86439963489015
28.83960044661146
27.86055717998593
28.84001325555
28.84010751028805
27.86255294488265
28.84031128999307
28.84036027104413
27.86364369026897
28.84047030947378
27.86428311014585
27.86383509794456
28.84049775957343
28.92071201909064
27.76647272989655
28.41099493877948
28.07691825906599
27.76801946898868
27.77542253554424
28.92138514315785
28.96063386306673
28.36478339862903
28.35472793841168
28.67826046593899
28.95669004565229
28.30703638385481
28.58639151018787
28.3288928449667
28.3395235151034
28.6029967247103
28.59142466542127
28.95868180323977
28.69157573534255
28.68231055138356
28.95729904477611
28.24749777719208
28.25012287503092
28.25076701302739
28.25423473896722
28.25580671682038
28.25449414248363
28.23842313087959
28.27073232604189
28.23894859659843
28.2329579265301
28.24102067930276
28.26427956955298
28.23230868991529
28.2490860933841
28.24859216593388
28.25264704866549
28.23676713416369
28.25260011206475
28.28019638342841
28.2691310054355
28.51520831219267
28.8405804291566
28.51514632172331
28.84057302031766
28.51516714356268
28.51519013037685
28.84058622424947
28.0274755620234
28.84061492753321
27.86467274593844
28.02751169887474
28.6780166079421
28.67798534190232
28.02741873318828
28.51528147613919
28.51522991421694
28.84059959268549
28.84060374588928
28.51526334536534
28.51525053662696
28.84060971986103
28.67803130719246
28.02758627575078
28.6780435695326
28.67800123144772
28.02746663752776
28.67801684587452
28.02751413799296
28.84061847375416
28.02746456472143
28.67800148461504
28.67800478670817
28.0274844801301
28.67802522128763
28.02753928595264
28.42914283545453
28.42661375983847
28.92115579409258
28.92104338962037
28.42767781743991
28.42844055188114
28.92125956583786
28.51241264088392
28.42926367159418
28.83950268432321
28.83953666400826
28.51206271137474
28.51196212660771
28.83965477350484
28.51352879938784
28.51302655427619
28.8399558342792
28.83995024287984
28.51329079155832
28.51330753025708
28.84003008430252
28.51425620100398
28.51397267527853
28.84023627651609
28.84022242862667
28.51410389663601
28.51414543455107
28.84027318711944
28.51471854949933
28.51455396636867
28.84040741690534
28.84039453635894
28.51462173975303
28.51466066739799
28.84042651979668
28.51507094141934
28.51509763111498
28.84053305443726
28.84055832815227
28.51512153015715
28.51504344062598
28.84054195779724
28.51527954593302
28.5153040598036
28.84060667241274
28.84062083311564
28.51531226450677
28.51527110419705
28.84060929494494
28.1900174528293
28.19005102745658
27.86469616198023
27.86479721666842
28.1900000264332
28.19006259489744
27.86471728974255
27.86465655879245
28.84062687244678
28.02741524412972
28.67800305862381
28.02747166139571
28.67801669281928
28.027513562319
28.02746758574007
28.6780174846497
28.02751864243759
28.67802926251167
28.02755504959075
28.67804293299672
28.02759703976834
28.02758149790479
28.02749818315897
28.67801156983524
28.67804990868279
28.02760899418186
28.67802161718422
28.02752874219263
28.18629310315533
28.18530506360278
27.85926755679629
27.85873261722449
28.18563461244354
28.1860315359637
27.85962153019008
28.18733200795333
28.18661015111534
27.86046628672145
27.8606903756585
28.18691564232622
28.18708100096194
27.86103177450232
28.18821910999047
28.18773516330435
27.86190553859884
27.86196591683557
28.18797270014522
28.18801704725115
27.86224219284589
28.18889270571163
28.18857994981995
27.8629696429155
27.86296128385085
28.18874977525735
28.18874374325046
27.86316596861096
28.18937669613404
28.18917559247517
27.86371754521232
27.86368687047107
28.18929318052691
28.18927096449191
27.86383279878677
28.51517906683852
28.51519310925862
28.8405886847141
28.84056828736484
28.51521641304182
28.51515269130372
28.84057673501151
28.18805299789252
28.18757524183555
27.86185970631067
27.86154986601718
28.1877130235328
28.18794011378889
27.86201407108696
28.51442049128549
28.51418593302017
28.84027895093546
28.84030375585789
28.51427311064232
28.51434760190195
28.84032795766722
28.51469572850396
28.51452110919798
28.84038653969922
28.84039745218956
28.51459742294949
28.51463034940922
28.84041903310608
28.51492750350912
28.51480337208072
28.84047439413758
28.84047772756407
28.51486411454283
28.51487423866498
28.8404951585166
28.5151097994215
28.51502345345534
28.84054133665373
28.84054109798879
28.51506940748944
28.51506867467118
28.84055439006835
28.18995020033005
28.18996141781156
27.86468398409422
27.86456958735609
28.19000027571074
28.18991052150652
27.8646243487461
28.18900396968669
28.18875001731608
27.86324400101083
27.8630576892754
28.18881443483889
28.18894993917552
27.86331839722745
28.51485202965785
28.51471981357814
28.84044148480285
28.84045839332386
28.51476354497034
28.51481484498986
28.84047058911147
28.51499942054753
28.51489332918439
28.84049769876229
28.84050696407577
28.5149350460578
28.51496332831812
28.84051871061711
28.51513368295036
28.51505245176356
28.84054756424024
28.84055188942413
28.51508856302852
28.51510188850607
28.84056212218194
28.51524714051945
28.51518691138752
28.8405885242887
28.84059000821374
28.51521628784235
28.51522093664743
28.84059833820992
28.67799605845866
28.02752228790192
28.67801974867369
28.84061363687343
27.86466689115567
28.67799651859524
28.02745409146335
28.51510026216691
28.51514087413181
28.84054701538258
28.84056879146169
28.51515331786539
28.51508579977672
28.84055167243198
28.5151663167927
28.5151953305157
28.84058698687053
28.84056727363236
28.5152104556673
28.51514888655379
28.84057284429968
28.5152387029729
28.51525783875933
28.84060709256794
28.84059004817623
28.51527419777383
28.51522039408992
28.84059583953535
28.51530762642897
28.51532369925389
28.84062063668471
28.8406130247237
28.51533392939496
28.51529255447035
28.84061881472069
28.02748989181764
28.67802645862152
28.02754241058675
28.84061806167573
27.8646992675805
28.67800084108173
28.02746525425981
28.02754340420032
28.67799435340295
28.02744389575646
28.67803456899682
28.02755789045772
28.02746845400236
28.67800230561719
28.67800397125593
28.02748858338765
28.67800963630796
28.02756230764074
28.67803674926641
28.0275759298758
28.67804085013843
28.02761204488205
28.67802408272177
28.02753488268049
28.02751021123523
28.67801621750917
28.02759231388118
28.67804598312442
28.18962613775956
28.18950586301045
27.86403831848925
27.86415447361147
28.18960938043
28.18952541092065
27.86417766596357
28.18998734237985
28.19003022551388
27.86475769829274
27.86466684027534
28.19003813312535
28.18997843950966
27.86468086279298
28.51515498821296
28.84057473463678
28.51512584263315
28.84055337094779
28.51517228642096
28.51510592745992
28.84056920314129
28.4205490035223
28.92010844541095
28.42478589530024
28.92061492761684
28.42985664888973
28.92113757484756
28.42832272902388
28.92134106776522
28.51332593256197
28.51284524939747
28.83992973187392
28.83984121581999
28.51323010263194
28.51296677918346
28.83996192766663
28.51427667221038
28.51404415853255
28.84026652297267
28.84021907605789
28.51423609877439
28.51409383383275
28.84028003333339
28.18928245298495
28.18938865930884
27.86388102774931
27.86366563848184
28.18941157311768
28.18925546209445
27.86370285217741
28.42485987468036
28.42585132035031
28.92033910917901
28.92095542871549
28.42708029727812
28.4229249672738
28.92062679367351
28.42880300079747
28.42888455870022
28.92135852643256
28.92102349699802
28.42977890988632
28.42754538063397
28.92120830310817
28.51280828811404
28.51273583836497
28.83987504396119
28.83965676249009
28.51306710377115
28.51241870181601
28.83978796501179
28.51391061213033
28.51383455444951
28.84019771397075
28.84008429051851
28.51402987160351
28.51369071972955
28.84015786725947
28.51454311373318
28.51448481527247
28.84038801444195
28.84032602595743
28.51460197346846
28.5144150386077
28.84036852862048
28.51498955088823
28.51507405436159
28.84052422004689
28.84053557746861
28.51501621415159
28.51505104913891
28.84051555090472
28.41341948689031
28.41060953364743
28.58164094652841
28.57955878652879
28.41918818856511
28.41601305129679
28.41785448198005
28.58589109716964
28.58355237926685
28.58491003899501
28.58472348258154
28.40732323049525
28.40347180003885
28.57423607733584
28.5771144142034
28.70366824855837
28.74749523561516
28.96017849530426
28.91827995222872
28.74833739300744
28.70171199689625
28.96047608020969
28.7504906104856
28.75072841458907
28.91932913370118
28.91870939656365
28.7514502069971
28.74961228017148
28.91900564905651
28.34075215227499
28.42804352254126
28.33651949950956
28.32630618068415
28.42314292912996
28.41489927309144
28.33006214570148
28.41831215205088
28.33537655167941
28.42021787847165
28.87263977069459
28.95991340656839
28.87370805357177
28.95994037206923
28.87316618700117
28.87324692549334
28.95973594694364
28.35545683945793
28.35582173768941
28.43917842771912
28.44348013432258
28.44125250080386
28.44158807953476
28.35316171064131
28.86961858192764
28.87006033184106
28.95850327211046
28.95906015694593
28.87062374784142
28.8689629749032
28.95872306558293
28.25392292711815
28.16758300809217
28.16274416184087
28.24935403852184
28.06475026725963
27.97898139099444
27.98593739890689
28.07542837625476
27.98352968739747
28.06918198735158
27.98992516344217
28.26999491421875
28.27039140927716
28.18519789003497
28.18768603309652
28.18477398403069
28.18207573558391
28.26746435271141
28.51525764351755
28.51529686160224
28.84060432017755
28.84061484944392
28.515263563986
28.51529366997043
28.84060240055149
28.02752786150828
28.67798746952114
28.0274207807415
28.18554002467604
28.18498611151279
27.85892595448232
27.85744651017099
28.18577891447474
28.18467739710766
27.85860301627572
28.18773440904834
28.18744425673304
27.86171370735768
27.86101731454701
28.18783328665251
28.1873225210243
27.8615786418034
28.18885351637873
28.18868974805536
27.86317464211271
27.86281045712141
28.18889954760609
28.18863453606185
27.8631113068267
28.51506044840226
28.5151294441792
28.84054271941265
28.84055784974926
28.51507247786375
28.51511915722216
28.84053883535257
28.42751990950307
28.42625135449193
28.92112128488139
28.92067534969665
28.42820528704333
28.42517915667721
28.92102071119187
28.51524546862505
28.84059305519214
28.51526506746951
28.8406090945503
28.51527885829171
28.51522957717862
28.84059814095171
28.18989653477172
28.18992931043728
27.86451584407667
27.86463143867166
28.18995310802861
28.18986979421149
27.86455302512016
28.18983428658862
28.18973086947171
27.86442424815461
27.86437105615325
28.18976558436237
28.18980389403945
27.86446647811069
28.51522663590149
28.84057971829608
28.51520906656166
28.84059789082269
28.51524499482611
28.51518810896102
28.84059206496026
28.18986494647935
27.86441959981992
28.18983553628774
27.86455156570081
28.18989560542088
28.18980056035383
27.86450903224913
28.51526139199736
28.84061456326958
28.84060843902206
28.51530602572016
28.51529192735649
28.51527742392993
28.84060335027149
28.18992355825394
27.86466411153198
27.86462691133268
28.19000035259237
28.18997794272352
28.18995019371316
27.86459029567892
28.18995740984132
28.18987037754554
27.86456424812936
27.86459438507978
28.1899264123602
28.18990492093385
27.86463704860638
28.18998910653935
27.86460988785662
28.18997461370889
27.86471987155559
28.19002025184045
28.18993917584918
27.8646775710299
28.51529860340657
28.8406060741782
28.51529158529772
28.84062017034039
28.51532123782885
28.51527086983112
28.84061589439812
28.51530912752986
28.84061375046704
28.51531995071415
28.84062655490652
28.5152935037498
28.51533667496807
28.84062000577418
28.19000557404317
27.86466453961328
28.19002412844454
27.86477446792652
28.18997737259179
28.19004603261415
27.86470257286204
28.26517286787489
28.26198127759953
27.77169166470447
27.77008144209449
28.26332166313433
28.26428229328473
27.77221468240304
28.26568176363749
27.77401002687645
28.18442583843446
27.85767488744839
28.18484774107639
28.26489629941005
27.77473455498266
28.42953981444694
28.92122736376
28.51190286122024
28.83956994793484
28.51216375386347
28.42892559956594
28.92132114108814
28.42936656217471
28.92109326256363
28.42897175060198
28.9213947607346
28.43003783869389
28.42801775541951
28.92129687517265
28.26546465643234
27.77292646626487
28.2649560288665
27.8566356716958
28.26631476324891
28.26375041936445
27.77373054086729
28.18442557256912
27.85823311981494
27.85779745993478
28.18567077221917
28.18494041875295
28.18526298623696
27.85711028939168
28.51190263362097
28.83965722861026
28.83959008304891
28.51267120129782
28.51222090196119
28.51241999889805
28.83948255936365
28.18525218474072
28.26532715573607
27.85724552718906
27.8574600774561
28.18468488973482
28.18452333888276
27.8582214358664
28.51273393242437
28.83963581638465
28.51271060447152
28.83986140362047
28.51302635011039
28.51235662909994
28.83976302210313
28.18577385789767
27.85810074307527
28.18573624713093
27.85956576299479
28.18624951977442
28.18516198100062
27.85892365854383
28.18588614691321
27.85845491888748
28.18606336207253
27.85981792809732
28.1854271182227
28.1864369557792
27.8590741845366
28.51280330543228
28.83969133000086
28.51291252320836
28.83990030527236
28.51252091137973
28.51314182719089
28.83978643260794
28.1863136694988
27.86018603364661
27.86029448268827
28.18711666584231
28.18670823149606
28.18678862019223
27.8596518394892
28.51306593950348
28.83995604180341
28.83997267031215
28.51355822633019
28.51330796450024
28.51335739450581
28.83987475562659
28.18706896736815
28.18625010848489
27.86018659031201
27.86014889146068
28.1866804597021
28.18670797023808
27.86067577041521
28.51374226942524
28.84003942808257
28.51377741458461
28.84016546139788
28.51393326786053
28.51355673938255
28.84010158669173
28.18741796403711
27.86073827140383
28.18747558665844
27.8615759116296
28.18773068709734
28.18711477108625
27.86115006443617
28.18739935715627
27.86067655753137
28.1874204403881
27.8615337706309
28.18706981389325
28.18770008367345
27.86112448155825
28.51373098117814
28.84003032257924
28.51374396086065
28.84015929962337
28.51352942967695
28.51391472455211
28.84009782914043
28.18769843943593
27.8619008830701
27.86188334708642
28.18819022567704
28.18796902715998
28.18795631010329
27.8615317568561
28.51391364877014
28.84021402980129
28.84021147659502
28.51421348263652
28.51407869102194
28.51407099419336
28.84015892023485
28.18826052606162
28.18779534874175