/*--------------------------------*- C++ -*----------------------------------*\
  =========                 |
  \\      /  F ield         | OpenFOAM: The Open Source CFD Toolbox
   \\    /   O peration     | Website:  https://openfoam.org
    \\  /    A nd           | Version:  7
     \\/     M anipulation  |
\*---------------------------------------------------------------------------*/
FoamFile
{
    version     2.0;
    format      ascii;
    class       surfaceScalarField;
    location    "0";
    object      phi;
}
// * * * * * * * * * * * * * * * * * * * * * * * * * * * * * * * * * * * * * //

dimensions      [0 3 -1 0 0 0 0];

internalField   nonuniform List<scalar> 
36327
(
2.237253727289406e-07
7.410041072534577e-07
-8.890793851015355e-08
1.84159065251179
-1.169140032909804e-05
-1.203236738118227e-05
1.398180161792473e-05
1.485664235942692e-05
1.841746054723707
-9.594815814900264e-06
-9.058056776035786e-06
1.107005730377107e-05
1.841712859089718
-7.736416380621566e-06
-6.663625093773612e-06
8.089092638385839e-06
1.841684166509893
-6.128677090900191e-06
-4.758585497060464e-06
5.763985484463793e-06
1.841659702245806
-4.762859369720956e-06
-3.260456210238787e-06
3.967021763284383e-06
1.841639149077515
-3.616786551941956e-06
-2.098055957184469e-06
2.593488326126361e-06
1.841622188796037
-2.660181135851203e-06
-1.212447556348739e-06
1.560160193176424e-06
1.841608527714875
-1.858137673518274e-06
-5.56617458042397e-07
8.027991918989097e-07
1.841597911357717
-1.173266888237674e-06
-9.46016039713071e-08
2.735296581481485e-07
1.84159013223649
-5.669458856442486e-07
1.995126281182844e-07
-6.146419976060053e-08
1.841585033500742
3.424668194868396e-07
1.841582510339826
-8.50084520824315e-06
-9.582015223245862e-06
1.007126625804698e-05
1.841709954850202
-7.026299187068066e-06
-7.269507832891968e-06
1.841683433726359
-5.692872642644208e-06
-5.370544492677668e-06
1.841660164405759
-4.521627692007185e-06
-3.832583892359281e-06
1.841640056091258
-3.515947874177534e-06
-2.603961455628446e-06
1.841622961765509
-2.666790800798973e-06
-1.637573009619623e-06
1.841608711283996
-1.956669520234915e-06
-8.927300082258533e-07
1.841597134124519
-1.362531387738546e-06
-3.358759745626547e-07
1.841588074329266
-8.577693560322733e-07
5.933603231456157e-08
1.841581399895745
-4.135983512816889e-07
3.122665992969228e-07
1.841577008410823
4.355981167400718e-07
1.841574830250252
-6.020209068867967e-06
-7.504545365579019e-06
7.096572307609159e-06
1.841679630634154
-4.989273471111378e-06
-5.723820600688021e-06
1.841658347410977
-4.043096006486897e-06
-4.236002745017231e-06
1.841639419133834
-3.203679389268062e-06
-3.011981327739707e-06
1.841622860299985
-2.479299058377004e-06
-2.020401334269357e-06
1.841608629285211
-1.867794680215228e-06
-1.230887683054495e-06
1.84159665296535
-1.359329919630961e-06
-6.160088474871372e-07
1.841586845091974
-9.385858638507158e-07
-1.523603790933311e-07
1.841579119437903
-5.864497010958214e-07
1.78918084983509e-07
1.841573398854727
-2.813001182133924e-07
3.919574636795519e-07
1.841569621280875
4.961402100834555e-07
1.841567743539265
-4.110018358529607e-06
-5.772394427966794e-06
4.848605404477337e-06
1.841654490644594
-3.393285175653134e-06
-4.41638532057853e-06
1.841637280989367
-2.73008323982902e-06
-3.266474252251538e-06
1.841621787457818
-2.140007480995181e-06
-2.307528166837327e-06
1.841608081434863
-1.632384546056781e-06
-1.521179696088491e-06
1.84159618413225
-1.208211628971331e-06
-8.883505401786855e-07
1.841586084094921
-8.619723088783797e-07
-3.909701755551107e-07
1.841577751182356
-5.832220900373843e-07
-1.307392991268844e-08
1.841571147249184
-3.579214854795074e-07
2.585423805668343e-07
1.841566233994982
-1.695428654236461e-07
4.339623432896735e-07
1.84156297850857
5.199695947372602e-07
1.841561356983881
-2.655421858689739e-06
-4.343782273378559e-06
3.163883850804023e-06
1.841633983807093
-2.159770879323433e-06
-3.327352157147572e-06
1.841619907786835
-1.701417865263017e-06
-2.454594467829567e-06
1.841607095768488
-1.296488277721163e-06
-1.718383419208984e-06
1.841595647262764
-9.535461279893252e-07
-1.108408293182783e-06
1.841585619235744
-6.746696792436645e-07
-6.130218276696936e-07
1.841577038152216
-4.566014694787812e-07
-2.20603518790491e-07
1.841569910195624
-2.918581650505273e-07
7.948873224976253e-08
1.841564229524202
-1.69747811546896e-07
2.962880070438333e-07
1.841559984661991
-7.728254452680679e-08
4.36821936183664e-07
1.841557163231727
5.058782633414401e-07
1.841555755260472
-1.5650931249128e-06
-3.170162556377608e-06
1.91773360943149e-06
1.84161762696948
-1.223560162979524e-06
-2.427667091770552e-06
1.841605923351168
-9.116812700415874e-07
-1.78361481930637e-06
1.84159516674859
-6.421654725419623e-07
-1.235204976104768e-06
1.841585468497136
-4.221430470489231e-07
-7.769524769427636e-07
1.841576904679386
-2.537209500893308e-07
-4.019763863993837e-07
1.841569524201432
-1.346912885290798e-07
-1.030093479096511e-07
1.84156335606248
-5.929669824482787e-08
1.268528536941108e-07
1.841558415538508
-1.899650056575867e-08
2.93621056915044e-07
1.841554709192593
-3.205529483301655e-09
4.020552721082636e-07
1.841552238735978
4.554369692536388e-07
1.841551003816114
-7.68615214423003e-07
-2.20039166321077e-06
1.01718456284119e-06
1.841605016994421
-5.326826480637536e-07
-1.682982018808403e-06
1.841595062540392
-3.233997899665216e-07
-1.230617542925638e-06
1.841585836739043
-1.505961359574923e-07
-8.426023346052168e-07
1.841577454197683
-1.990465377558727e-08
-5.162156782034801e-07
1.841570000353933
6.698220180470474e-08
-2.475631494494451e-07
1.841563536797714
1.118828426521242e-07
-3.22747568447794e-08
1.84155810636932
1.195962275658038e-07
1.339531640300976e-07
1.841553737722698
9.732132133453152e-08
2.549573625517253e-07
1.841550449185448
5.4057237339793e-08
3.338254316815746e-07
1.841548251841829
3.727085260381617e-07
1.841547151824301
-2.13587790204587e-07
-1.382838832305185e-06
3.948488931723832e-07
1.841595834305032
-4.742942259829731e-08
-1.056062983501798e-06
1.841587108589238
9.282572729363431e-08
-7.687512344171213e-07
1.841578966565656
1.995201897297475e-07
-5.210154792305432e-07
1.841571522276354
2.682800056300731e-07
-3.116321000991126e-07
1.841564865166589
2.979229340934442e-07
-1.385544987678641e-07
1.841559063591106
2.901962144298576e-07
6.526404688498859e-10
1.841554168415222
2.49397925694999e-07
1.084654077405741e-07
1.841550216411711
1.81923420583731e-07
1.871361027274057e-07
1.841547233256044
9.576728993972032e-08
2.385013785071869e-07
1.841545235998801
2.638519100464233e-07
1.841544234951186
1.369459939685384e-07
-6.662655985799973e-07
4.138417793415002e-09
1.841589842238996
2.607710607538297e-07
-5.082014095646732e-07
1.841581897403834
3.585728810547223e-07
-3.687545492316334e-07
1.841574447983639
4.241265700714645e-07
-2.481363877420849e-07
1.841567606398428
4.53941055860154e-07
-1.458982962160834e-07
1.841561463485114
4.472510017515609e-07
-6.117146827479115e-08
1.841556090911645
4.058474049859398e-07
7.125493363203661e-09
1.841551543848489
3.337882907628703e-07
6.011751452206227e-08
1.841547863619049
2.370231739288985e-07
9.884196572329606e-08
1.841545080124796
1.22960890991916e-07
1.241523578671536e-07
1.84154321390448
1.366518276313401e-07
1.841542277737673
3.065020829221087e-07
-1.841774473215999e-07
1.841586884872079
4.103562716295528e-07
1.841579319256276
4.879604684141804e-07
1.841572207310499
5.337977982278852e-07
1.841565660306095
5.448278629745655e-07
1.841559769420869
5.205134348968628e-07
1.841554607642117
4.626921664735145e-07
1.841550231994681
3.753281680785714e-07
1.841546685828639
2.641737367653951e-07
1.841544000962948
1.363691235887274e-07
1.84154219953718
1.841541295471814
-2.425887267215231e-06
3.472605376480979e-06
1.057919106983726e-06
1.841608494569584
-1.5326161685502e-06
4.645348062290576e-07
1.841599461082211
9.124305292173388e-08
1.841593563849329
-4.725241867885999e-06
6.23625429490759e-06
3.095667955250557e-06
1.841636963818253
1.91430522292262e-06
1.841620892624661
-1.567786050329979e-05
1.637591411361065e-05
1.961513971212784e-05
1.841783922074079
-1.235509495315118e-05
1.166076248817266e-05
1.841739716655944
-9.600153041325431e-06
8.158347099046918e-06
1.841703166893758
-7.342931517660875e-06
5.564056009690051e-06
1.841673274160769
-5.505472862399784e-06
3.652098639768374e-06
1.841649168464393
-4.00967556987167e-06
2.257330989665359e-06
1.841630122697779
-2.780547626010787e-06
1.260592327260844e-06
1.841615551276099
-1.747068332059818e-06
5.777089939458837e-07
1.841605002082829
-8.418180911748081e-07
1.516166812704147e-07
1.841598146688497
-5.29957891309313e-08
1.841594771541424
-1.866207889393649e-05
2.067522073900814e-05
-2.443159147005591e-05
3.161348740053684e-05
1.795824651435602
-1.95180288926622e-05
2.480611699654832e-05
1.795780253414996
-1.51898332073151e-05
1.311751754684565e-05
1.795727833318516
-1.168867199526051e-05
9.099862545423199e-06
1.795685200086325
-8.875447960848617e-06
6.183287353673371e-06
1.795650815670228
-6.619718778215287e-06
4.069297637795979e-06
1.795623410373615
-4.80406293755382e-06
2.548139762029159e-06
1.795601964893564
-3.323960288074916e-06
1.473019763450382e-06
1.79558568314927
-2.085833542811771e-06
7.426894946711692e-07
1.795573964711608
-1.004423878908864e-06
2.897509219224095e-07
1.795566380899721
7.303717097784305e-08
1.795562656292894
-1.575328555247781e-05
1.90862611688658e-05
1.801080766344479e-05
1.841788508402125
-1.27925087901899e-05
1.325027244617222e-05
1.841746886561012
-1.023056831627181e-05
9.594071144089875e-06
1.841711499198766
-8.056287402401694e-06
6.803624800799559e-06
1.841681763999858
4.6873593982297e-06
1.841657098046454
2.416245747852453e-05
2.270571719265035e-05
1.841836864708881
-2.120826838545935e-05
-5.585696913384382e-05
7.926377982428172e-05
1.706123167443192e-05
1.796066342966611
-2.26005841453401e-05
-4.916869988819701e-05
6.748778464782387e-05
1.79602118820857
-2.231559349287254e-05
-4.238633583443262e-05
5.598633515519506e-05
1.795972863980822
-2.205930598563976e-05
-3.619163340519186e-05
4.878244592222445e-05
1.795922191665007
-3.005033964625352e-05
3.969283363803902e-05
1.795872335824718
-1.36610928709679e-05
-3.997911918646752e-05
1.111807861049685e-05
1.795935104990384
-1.494723020449063e-05
-3.581935927612626e-05
1.795904160747916
-1.53253685535429e-05
-3.139225029384608e-05
1.795869785315858
-1.512934845784804e-05
-2.699536065705634e-05
1.79583354860069
-1.433491398457274e-05
-2.272254349806067e-05
1.79579706109719
-1.875025900314684e-05
1.795761519508183
-8.96713738162678e-06
-2.883948150156357e-05
7.326528006961643e-06
1.795838116670218
-9.951592730317306e-06
-2.611777419799481e-05
1.795816208218696
-1.036383118068264e-05
-2.314251592098498e-05
1.795791424416564
-1.030781693074091e-05
-2.009481836166844e-05
1.795764942374248
-9.85250945824903e-06
-1.710132257824183e-05
1.795737841463882
-1.427332637077493e-05
1.795711022647176
-5.895908947849712e-06
-2.083001479692465e-05
4.814021651412192e-06
1.795765745959898
-6.594252361628902e-06
-1.900616466316583e-05
1.795749824632182
-6.92474888930883e-06
-1.698071378878839e-05
1.795731591676677
-6.929896986739086e-06
-1.486885917405879e-05
1.795711861655882
-6.661342502304434e-06
-1.276565004430731e-05
1.795691396117796
-1.074885509458683e-05
1.795670862838421
-3.837840331295142e-06
-1.495300943241643e-05
3.129426311130419e-06
1.795711602114579
-4.308693470488141e-06
-1.37199865406501e-05
1.795699730329311
-4.541690309014376e-06
-1.233552227908094e-05
1.795686002416879
-4.556594129478253e-06
-1.087359493768855e-05
1.795670985551752
-4.385551130280115e-06
-9.399553611763699e-06
1.795655227227812
-7.967761295986175e-06
1.795639225489523
-2.446472867781401e-06
-1.054690159112764e-05
1.995506979123853e-06
1.795671337921071
-2.746436556674797e-06
-9.717592355956499e-06
1.795662227606982
-2.892022551093785e-06
-8.778622216709664e-06
1.795651607326931
-2.893256691698122e-06
-7.777490651818078e-06
1.795639882307249
-2.769888305265813e-06
-6.757801637014386e-06
1.795627455032232
-5.756828912104157e-06
1.795614703278268
-1.510663906396182e-06
-7.150547006198775e-06
1.236895906497235e-06
1.79564196945708
-1.686884039532644e-06
-6.608225198909249e-06
1.795634731968732
-1.762325880814962e-06
-5.990305319847727e-06
1.795626237603216
-1.742619405591088e-06
-5.326664828402185e-06
1.795616786671573
-1.640370846389017e-06
-4.645419301611194e-06
1.795606684719537
-3.97117533892644e-06
1.795596226360743
-8.98697244468976e-07
-4.426916469093995e-06
7.431227553630995e-07
1.795621461263089
-9.89611003535111e-07
-4.099536674709197e-06
1.795615457734577
-1.013460819329594e-06
-3.724855601947555e-06
1.795608373185871
-9.738884419546504e-07
-3.320384535122372e-06
1.795600441535598
-8.795406079169021e-07
-2.902870626678047e-06
1.795591905535083
-2.487225437436183e-06
1.795583004535693
-5.292754037953953e-07
-2.115485337128575e-06
4.460891460666988e-07
1.795608466034693
-5.668134545319805e-07
-1.961356943389166e-06
1.795603211911469
-5.570476496637082e-07
-1.784489526676754e-06
1.795596987462154
-5.027574762068126e-07
-1.592975827691135e-06
1.79558998751925
-4.105183399355212e-07
-1.394628050377378e-06
1.795582417270438
-1.196474528070365e-06
1.795574482411823
-3.553538751824478e-07
3.065450770791987e-07
1.795602162817374
-3.672327647794098e-07
1.795597262895818
-3.409397928741143e-07
1.79559144606386
-2.789379129848064e-07
1.795584889039127
-1.869179800675802e-07
1.7955777794363
1.795570307038083
-3.504522321488832e-07
2.587002885897173e-07
2.353471714250743e-06
1.841649089440231
-7.508368020776719e-05
-2.886123669382634e-05
2.58879151644116e-05
2.774130613961145e-05
2.738531041948655e-05
3.735313503266946e-05
1.371398828514669e-05
1.842236458061215
-5.416838853007955e-05
-1.921798636380077e-05
1.667691548562372e-05
1.84207705408965
-3.941893297140163e-05
-1.285647995572141e-05
1.092436575365329e-05
1.841957770978219
-2.879865762271259e-05
-8.608742639777035e-06
7.2200514873272e-06
1.841868109157339
-2.102314624563113e-05
-5.739415242605104e-06
4.774267225185582e-06
1.841800403924225
-1.523186995567916e-05
-3.783032497528251e-06
3.132504850787865e-06
1.841749278856739
-1.082948116681567e-05
-2.444516552647833e-06
2.022010433459031e-06
1.841710976081174
-7.390451295544391e-06
-1.535849521774847e-06
1.274576128335642e-06
1.841682873217849
-4.598102257459626e-06
-9.372875528786478e-07
7.853317927642699e-07
1.841663160492459
-2.204080707868994e-06
-5.740293626748323e-07
4.897180471684702e-07
1.841650629726381
-4.024512545091177e-07
1.841644540334258
-6.473932623101206e-05
-3.063922201110982e-05
8.993209990056131e-05
1.842170212687215
-4.734437464382976e-05
-2.054037324284152e-05
1.84203025462304
-3.486236781924389e-05
-1.389086688167304e-05
1.84192451382777
-2.5720718418019e-05
-9.39354916368434e-06
1.841844060177884
-1.892452648737691e-05
-6.30816686186208e-06
1.841782648481193
-1.379603846053632e-05
-4.174528429845705e-06
1.841735858627843
-9.854750336851458e-06
-2.697352875750535e-06
1.841700550323289
-6.748371434564017e-06
-1.684997059075403e-06
1.841674498181938
-4.2084337222036e-06
-1.013282364820709e-06
1.84165614664046
-2.020028183791827e-06
-6.035389931789023e-07
1.841644446893305
-4.094139931129057e-07
1.841638751517443
-5.390624992339865e-05
-2.99064359355271e-05
7.245267396575346e-05
1.842098101966471
-4.021142202473914e-05
-2.0489722522691e-05
1.841979287507001
-3.003807674481774e-05
-1.405649078441411e-05
1.841887820688768
-2.241101622412412e-05
-9.605470140312081e-06
1.841817165130266
-1.663576382191214e-05
-6.496197500206671e-06
1.841762550504739
-1.221146622779627e-05
-4.312970226503324e-06
1.841720507963487
-8.768792119577792e-06
-2.782050344762792e-06
1.84168851721487
-6.027820349398392e-06
-1.721957773373076e-06
1.84166475842401
-3.768900334141467e-06
-1.012933728667599e-06
1.841647940046009
-1.811789502232773e-06
-5.779721536581059e-07
1.841637181049457
-3.711989878180036e-07
1.84163193305978
-4.380490302658912e-05
-2.777937896759818e-05
5.751456676683933e-05
1.842025888421297
-3.331046807585998e-05
-1.940422814003217e-05
1.841927231310841
-2.526344873526978e-05
-1.350979163631006e-05
1.841849713114392
-1.907568677164861e-05
-9.331165528729161e-06
1.841788813390814
-1.429380701252794e-05
-6.353196238933142e-06
1.841741082382633
-1.056924221492249e-05
-4.227082348046576e-06
1.84170392004102
-7.631626480045339e-06
-2.715575405571415e-06
1.841675383124091
-5.267247359902838e-06
-1.657256191694401e-06
1.841654036540838
-3.302315264401252e-06
-9.433386140211242e-07
1.841638843614881
-1.589983077933484e-06
-5.027027890601092e-07
1.841629087621364
-2.924676383949361e-07
1.841624318227893
-3.48208445559927e-05
-2.475525410916316e-05
4.463333431001421e-05
1.841957150214611
-2.698748198886357e-05
-1.762834385460205e-05
1.841876574523873
-2.078101945857564e-05
-1.245353445938779e-05
1.84181192315323
-1.58812069688465e-05
-8.69031068617683e-06
1.841760235183606
-1.201311595637154e-05
-5.951238825906383e-06
1.841719132602428
-8.947842539709083e-06
-3.961198550976194e-06
1.841686747740276
-6.496363147515927e-06
-2.525942712162778e-06
1.841661638596683
-4.501425046343033e-06
-1.509326451428457e-06
1.841642712644244
-2.829643427865549e-06
-8.174053154082185e-07
1.841629164805404
-1.364462981861733e-06
-3.876328513422429e-07
1.841620430090778
-1.818015316328105e-07
1.841616149779916
-2.717577884157953e-05
-2.138111550892147e-05
3.409802968487794e-05
1.841894094321887
-2.143644282986161e-05
-1.549333356435119e-05
1.841829039019949
-1.67441939503392e-05
-1.109145603123258e-05
1.841775761200118
-1.294299340631602e-05
-7.809747216785382e-06
1.841732421028254
-9.878391622919473e-06
-5.370510231003882e-06
1.841697451770138
-7.408237737698421e-06
-3.566915518261542e-06
1.841669565170164
-5.405834753653097e-06
-2.247126317771972e-06
1.841647730150761
-3.759198415533134e-06
-1.301310490754528e-06
1.84163114319589
-2.368624754798031e-06
-6.517507455382769e-07
1.841619199161528
-1.143666886087582e-06
-2.456956246823951e-07
1.841611466399264
-5.047490275864259e-08
1.84160766772905
-2.085993110190783e-05
2.568516103713222e-05
1.841837785866673
-1.671453084444017e-05
1.841785648422181
-1.32238915074516e-05
1.841742112333378
-1.03264139350098e-05
1.841706100711249
-7.943668209451391e-06
1.84167662969309
-5.992494487303563e-06
1.841652847012199
-4.391254256263686e-06
1.841634042779525
-3.062413022883652e-06
1.841619646454994
-1.933047755492778e-06
1.841609218078695
-9.342528242865338e-07
1.841602438272936
1.84159909944551
5.893235848429894e-05
1.702257922510254e-05
-1.711356173543031e-05
-4.780917444739535e-05
-0.4606510785451192
0.460640046343567
-4.693395439497618e-05
3.607424073184817e-05
2.842550492074269e-05
3.633025031762882e-05
2.462687965040788e-05
6.376738346386412e-06
1.836019882642259e-05
2.061390412688713e-05
2.193371771180841e-06
1.842357910833364
-4.383209115265437e-05
2.419047608873126e-05
2.640692841049397e-05
3.483487029457e-05
1.196497648031647e-05
1.842252792771845
-3.978756712450946e-05
7.566632220209732e-05
1.842151401552499
-3.45765131152229e-05
5.67883499364074e-05
1.842057195486106
-2.922378973946815e-05
4.22920213045481e-05
1.841972971485816
3.115462361351233e-05
1.841899604450546
5.427436272786316e-06
2.011274895929312e-06
-4.85990608464668e-06
0.112347391469692
-2.040103000183944e-06
6.914208174890685e-06
0.4491744485117231
-7.669683341250259e-06
-1.978728813118877e-05
6.757094574566525e-06
5.467642411938201e-06
9.332313724165486e-06
2.623910098857596e-06
4.062410249943236e-06
2.028413129999916e-06
0.1123277403890999
-2.009583308410685e-06
-3.701497778526875e-06
2.167168547704917e-05
-0.4491438462220856
-2.396164781266588e-05
5.556854640084057e-05
0.4491266418792215
1.043077265861642e-05
1.99543091770199e-06
-4.183710170168088e-05
-6.096092985090402e-05
2.013796140972607e-05
1.670809059663853e-05
2.285867168499989e-05
1.557934017289153e-05
1.24560873853638e-05
1.2896928937918e-05
0.4491993729825658
-0.1123181897478316
-0.1123584244540669
-0.1123673978521614
-0.1121656261806938
2.815973869736558e-05
5.22540551450078e-05
-4.319681423233696e-05
-2.643158222064166e-05
-0.4491351820498722
0.4491243966524934
4.980571112171775e-05
3.781303862853213e-05
-4.262835171817291e-05
-3.363265001769919e-05
-0.4491512360393131
0.4491398782913052
-5.5736924288125e-05
1.375382176507789e-05
2.472628692667955e-05
5.56480323196662e-06
2.120915578529559e-05
2.301247757599545e-05
2.92576139525047e-05
8.758260059110734e-06
3.744312047485043e-05
1.796250593517975
-7.113422552847052e-05
-6.406417886440933e-05
1.675460989811195e-05
2.515051896501141e-05
6.91522176352044e-06
3.109937818920883e-05
1.798916113354698e-05
2.718885922070591e-05
3.575775718681062e-05
7.490480789268394e-06
1.796267173654165
-4.672337399073418e-05
1.796124623343118
-2.634365050353737e-05
4.05950902762574e-05
2.979211508617819e-05
1.795903264116561
3.114176674073298e-05
1.795844256732046
-5.156651779714147e-05
-5.138869396175674e-05
6.257332127275398e-05
1.796121073132092
-3.848963847033191e-05
1.796014870533071
-3.701096805726268e-05
4.33558808126123e-05
1.796000762560851
1.795921820231015
1.723375377366068e-05
9.215941683133125e-06
0.0284475036845426
-1.530482044745788e-05
-9.148882477147526e-06
8.664042043433466e-06
7.57044050374075e-06
0.02831428754647782
-7.741100912536566e-06
-8.461324584071793e-06
2.993341784292425e-05
3.670359757357174e-05
0.1128358530380675
-3.258880832834601e-05
-2.716935916415097e-05
1.412805265297359e-05
2.25386772237945e-05
0.1126187181455619
-1.990608444340429e-05
-1.340393468543201e-05
7.01255835871897e-06
1.375919839020193e-05
0.1124848342877218
-1.219030188938098e-05
-6.862203690230809e-06
2.328618014823454e-06
0.1123587738862959
6.068215510495356e-06
-2.354827250502524e-06
-3.449653461698291e-05
2.259439460627899e-05
2.769902581679711e-05
3.424793508124968e-05
2.118156407168725e-05
3.701850353254876e-05
1.796246882110182
-3.557904760513624e-05
2.436615086143235e-05
1.823886520491147e-05
5.758677629669195e-06
4.428394052133355e-05
1.79617749337654
-3.044460480553957e-05
1.796111085738175
0.000516885185211452
-0.0002005338688942093
-1.548603299705853e-06
-0.0002511264085863496
-3.231620454935537e-05
6.909624056561371e-05
1.796036783940679
5.261523172364328e-05
1.795967887189519
7.621197360549508e-07
0.112310912736989
3.596519485782323e-06
-8.304302610803366e-07
-4.944499189536711e-06
6.766289615558263e-06
-0.1123006955550956
2.144457071597561e-05
-1.068944965965121e-05
-1.349377939759838e-05
0.1122966679238253
3.331093738512769e-06
1.552188812873505e-06
0.1123132048665081
-1.585952155332767e-06
-3.21232499321829e-06
6.609659572089088e-06
2.393452615163938e-06
0.4491767710032768
-1.244491051733259e-05
-1.823545067480837e-05
1.090033678117358e-05
-5.807759069317853e-06
4.431675152211101e-06
-5.940032625018771e-05
-6.947895714461139e-05
0.0001481384310197814
-4.702105915591059e-05
2.828968857246535e-05
4.373790491023352e-05
-0.4490996013125291
-1.821698829882934e-05
0.4490928117664907
-6.841909372226333e-05
1.434927473151215e-05
2.697597238662808e-05
4.341320869266641e-06
3.335379237773273e-05
2.044409553944582e-05
3.287525330991636e-05
8.504575608081488e-06
2.470857544528693e-05
1.7962430226941
0.4491273394224109
1.848707771756609e-05
-5.610876680606284e-06
4.980811247928279e-06
5.520585849083658e-05
2.28824531305346e-05
-2.43775740149059e-05
-4.52197318279485e-05
-0.4491342514491662
0.4491257604433621
0.0002451152793109534
3.672319052562968e-05
0.4493323103265506
-0.0005462185926071973
2.224570341067567e-05
-0.4490901759071875
-5.0913701412045e-05
2.880742681843351e-05
-2.347597640905974e-05
1.817055461900141e-05
1.796181851981046
0.0006113515759642307
-0.0002859861769220207
6.726756847708071e-06
1.796088872490074
0.0001481407306573074
0.0003608786848855712
-0.1128985865030148
-0.0002995504608736417
-0.0001533371539093625
0.1128424547022444
0.0002262091115597609
0.0001487047458622545
-0.1127403686392659
-0.0001430821271854052
-0.0001953582908005332
0.1127038951998418
0.0001310941085454227
0.0001202876882944981
-0.1126007201184922
-0.0001119211154694635
-0.0001176565510823268
0.1125789159882106
7.408913067165822e-05
8.777918985311567e-05
-0.1124935418833902
-8.045973821529699e-05
-6.874557677956821e-05
0.1124808788778554
4.221302441512096e-05
6.137242130484524e-05
-0.1124164943998753
-5.597808297612226e-05
-4.02226133802422e-05
0.1124091096505122
2.31345496346233e-06
0.112336384452556
-2.272395940622527e-06
4.477725408169059e-06
6.166741862450722e-05
0.000178857505481179
-0.1126212875527414
-0.0001523160770241737
-6.490780587443596e-05
0.1125979865115293
1.898663201786455e-05
1.013515403638307e-05
0.1125697154628185
-1.001691246441267e-05
-1.646596104661524e-05
1.242339993960696e-05
9.13089387866037e-06
0.11249244055956
-8.719970503431968e-06
-1.106625191636852e-05
7.796012630906996e-06
7.350442261911373e-06
0.1124271589357928
-6.884393336092473e-06
-7.120771079743339e-06
4.81002491341405e-06
5.554892277513465e-06
0.1123760264608133
-5.147500530672801e-06
-4.488670137743826e-06
1.364584516117953e-05
-0.1123165406251605
-1.62873644121267e-05
2.111512732483328e-05
0.1123084977897921
2.859410459630284e-05
9.690252782080479e-05
-0.1124719740797016
-8.409726692015311e-05
-3.057511327753768e-05
0.1124611498274852
1.092291403067658e-05
4.927495987993841e-06
0.112446559753197
-4.969598181821087e-06
-9.577165939925761e-06
7.845350923404498e-06
4.825220780994433e-06
0.1124063255425281
-4.706811745749474e-06
-7.005859746232995e-06
5.383670721874427e-06
4.220958860676003e-06
0.1123692806987311
-4.031942026740999e-06
-4.8963694429667e-06
3.590643034405744e-06
3.434703124573354e-06
0.1123377991514296
-3.233873977531255e-06
-3.319847275069117e-06
1.742872395781025e-05
-0.4491836443097377
-4.164514893317242e-05
6.113102237172152e-06
8.487184078330434e-06
1.335375839174591e-05
0.4491734156576861
1.156855830872217e-05
2.042909985694452e-05
1.679291610830885e-05
7.506169623763825e-06
1.264120506021649e-06
-4.797766320914445e-06
0.1123487401101269
5.444539237214533e-06
-1.374206142474614e-06
-4.059373292415699e-06
1.608880673122188e-06
0.1123359363214167
-1.659324895845721e-06
4.560745793486327e-06
1.750284026139287e-06
0.1123211887314373
-1.767940582966453e-06
3.64796214211375e-06
1.985575332702521e-06
0.1123058036016324
9.085362311271378e-07
3.134006616889459e-06
1.430603551737728e-05
0.4491677599585842
-1.225045361446772e-05
-1.547518897027089e-05
5.122919177924512e-06
1.213317431338068e-06
1.131360288873784e-05
-1.310646991312114e-06
4.492642297618202e-05
4.298822050036477e-05
-3.721059102515161e-05
-3.880689235530873e-05
-0.4491506592160306
0.4491387620559344
-6.11237616968073e-05
8.86909398695564e-05
9.590765714511448e-06
1.796103496876903
-4.333917239919023e-05
7.46382254150707e-06
1.795960294977007
-3.106605208157384e-05
5.130510551663319e-06
1.795855840931111
-2.232289477888116e-05
3.401874394779524e-06
1.795778534985921
-1.595788308592371e-05
2.214676911807624e-06
1.795721071315398
-1.12191789368472e-05
1.413478984096257e-06
1.795678558442553
-7.588126294422181e-06
8.787462279370999e-07
1.795647674378401
-4.690146171056711e-06
5.317445898468701e-07
1.795626172594915
-2.23914859833443e-06
3.23513482976272e-07
1.795612576124974
2.258380291664189e-07
1.795605989352545
2.512492398998312e-05
-2.083066089569874e-05
4.661930070090636e-05
2.361901682310097e-05
3.644009314329733e-05
-1.811303958917931e-05
3.404363578538017e-05
1.535853561066003e-05
1.79630939717034
4.757118677721946e-06
0.4491448765383446
2.125365141873649e-05
-3.784868763251684e-06
-9.241584876207298e-05
-1.926112192111399e-05
3.9816515121055e-05
2.749625830658631e-05
4.029798929480743e-05
2.636578867232231e-05
1.842341124135124
-6.498505304379199e-05
-1.23146660166826e-05
1.842146531942831
-4.634819362807037e-05
-7.983666435506933e-06
1.842005624535403
-3.334665176124123e-05
-5.228360776791575e-06
1.841902012944757
-2.406087792530548e-05
-3.434397832198859e-06
1.841825054201109
-1.727875837399126e-05
-2.244315196954152e-06
1.841767682895231
-1.220324054166624e-05
-1.446652049708091e-06
1.841725129395591
-8.287802716129359e-06
-9.134355284183703e-07
1.841694147834112
-5.139536795359148e-06
-5.661477539321468e-07
1.841672540027986
-2.458943406031735e-06
-3.570234802696841e-07
1.841658858864314
1.841652225853608
-8.496435715115451e-05
2.476368006371077e-05
3.504483444208284e-05
3.665484377579631e-05
2.539768033851808e-05
1.842297254043167
-6.033917211552586e-05
1.84211721128159
-4.339256600586274e-05
1.841985555252784
-3.142226038477247e-05
1.841887887125537
-2.278427143530312e-05
1.84181483856603
-1.642310185783324e-05
1.841760088488051
-1.163125699994742e-05
1.841719309453119
-7.915265698885714e-06
1.841689524903849
-4.915208322131544e-06
1.841668702856452
1.841655497749471
1.694112031883077e-05
-0.4606936232078169
-9.903357514965481e-06
-6.02555924158453e-05
1.690829515119813e-05
2.623868803810353e-05
1.400194664588628e-05
0.4606821288581351
0.460629219902053
1.897669513248715e-05
3.946131357487818e-06
-4.568945278707931e-06
5.589513875889184e-05
-0.1123731249872506
-8.268070857376098e-06
-4.943102808629405e-05
0.112368139760477
-0.1123036197738276
-6.33810454087204e-06
2.421560614437226e-05
0.1123003937890328
5.785532534762776e-06
-5.163503342193114e-06
0.1123521920693396
1.960312937745903e-06
0.4491910722260641
6.025022255227403e-06
-2.13442650606058e-05
7.217231013142977e-06
5.362253500743042e-06
7.777141567959223e-06
5.637232324974539e-06
5.429665152182348e-05
0.1128773350636311
-4.468844425583607e-05
-1.252133979166481e-05
2.609242721959302e-05
0.1126022829064686
-2.210480733282419e-05
-5.072868102590046e-06
-0.1123885569433014
-9.679232987113258e-06
6.343834217864153e-05
0.1123827331079994
1.074951583778266e-05
0.02848613911226797
1.946396736050746e-05
-1.063363797874723e-05
8.392705378112254e-06
0.02833307015759283
-8.107886018802008e-06
9.269059952321626e-06
4.389656121784231e-05
0.112902441732999
-3.84743765909538e-05
3.268704016059903e-05
2.574965657738474e-05
0.112650460337903
-2.253519934122734e-05
1.473112824786822e-05
1.522550933105277e-05
0.1125007947704155
-1.340494215770061e-05
7.085877153621863e-06