/*--------------------------------*- C++ -*----------------------------------*\
  =========                 |
  \\      /  F ield         | OpenFOAM: The Open Source CFD Toolbox
   \\    /   O peration     | Website:  https://openfoam.org
    \\  /    A nd           | Version:  7
     \\/     M anipulation  |
\*---------------------------------------------------------------------------*/
FoamFile
{
    version     2.0;
    format      ascii;
    class       volVectorField;
    location    "0";
    object      U;
}
// * * * * * * * * * * * * * * * * * * * * * * * * * * * * * * * * * * * * * //

dimensions      [0 1 -1 0 0 0 0];

internalField   nonuniform List<vector> 
12677
(
(1.000174471522544 -2.063804542748358e-07 9.018268593435434e-08)
(1.000260022067978 -7.150361284979862e-06 -7.756445115433244e-06)
(1.000241720198806 -5.928521736009926e-06 -5.806186753790422e-06)
(1.000225913206276 -4.827001011412959e-06 -4.255591653507522e-06)
(1.000212444442792 -3.861630805668192e-06 -3.035357013901235e-06)
(1.00020113510298 -3.033451795277141e-06 -2.084849417489436e-06)
(1.00019180690995 -2.333853640709476e-06 -1.353330083774311e-06)
(1.000184295965879 -1.748227072799536e-06 -7.997906969784102e-07)
(1.000178460643237 -1.258417701427292e-06 -3.921394182522997e-07)
(1.00017418569438 -8.442903951840175e-07 -1.06191710226766e-07)
(1.00017138412215 -4.846746452456283e-07 7.528177727275496e-08)
(1.000169997849477 -1.579027002457457e-07 1.633246708314755e-07)
(1.000240119050795 -5.172603990993477e-06 -6.23491805691955e-06)
(1.000225509588218 -4.324536235712462e-06 -4.70987440437134e-06)
(1.000212699073534 -3.542474912784577e-06 -3.47139507301479e-06)
(1.000201634456973 -2.844887357009678e-06 -2.478221937205645e-06)
(1.000192232325149 -2.238582050142348e-06 -1.691658942077085e-06)
(1.00018439710812 -1.72198292008629e-06 -1.077585282985836e-06)
(1.000178033532366 -1.287701146320562e-06 -6.072627610619067e-07)
(1.000173054753753 -9.244458721260363e-07 -2.574500286360724e-07)
(1.000169387434966 -6.183861446956071e-07 -1.017276105483043e-08)
(1.000166974767277 -3.540944501917179e-07 1.476286232928477e-07)
(1.000165778170171 -1.151931747601521e-07 2.244418085269944e-07)
(1.000223414445454 -3.653214975645198e-06 -4.928815550368552e-06)
(1.000211698711167 -3.066301503177266e-06 -3.748075507636422e-06)
(1.000201284035216 -2.515646673529684e-06 -2.771119395488914e-06)
(1.000192176633625 -2.01833266990524e-06 -1.974393811440053e-06)
(1.000184352112846 -1.582792403792776e-06 -1.333950806828237e-06)
(1.000177769049904 -1.210729023287353e-06 -8.274405905752448e-07)
(1.000172379087426 -8.988012749742838e-07 -4.352131335056636e-07)
(1.000168134127192 -6.40003065569989e-07 -1.408374097084572e-07)
(1.000164991266901 -4.247446533670729e-07 6.872714922059723e-08)
(1.000162916061704 -2.416809862077155e-07 2.03141556627829e-07)
(1.000161884577532 -7.834618882028306e-08 2.687706711990944e-07)
(1.000209575334777 -2.495107417516861e-06 -3.829886475490678e-06)
(1.000200107445012 -2.08977949891031e-06 -2.925059398998629e-06)
(1.000191586559031 -1.705447438722775e-06 -2.164176056904446e-06)
(1.000184050931513 -1.356391316868426e-06 -1.534473891299767e-06)
(1.000177511344242 -1.050666214430914e-06 -1.021609914653237e-06)
(1.000171960770196 -7.911474758035835e-07 -6.113187202903355e-07)
(1.000167382066693 -5.765764262635901e-07 -2.904747168186067e-07)
(1.000163753834853 -4.025077217859743e-07 -4.772143529019797e-08)
(1.000161054713852 -2.621222159927666e-07 1.261905202754015e-07)
(1.00015926640611 -1.469065188797585e-07 2.38246098164199e-07)
(1.000158375700013 -4.722016350748043e-08 2.931085961777927e-07)
(1.000198293083309 -1.620761540543661e-06 -2.918127893252164e-06)
(1.000190552656079 -1.341101425706589e-06 -2.233770423533756e-06)
(1.00018350901504 -1.075397395707106e-06 -1.650308286005452e-06)
(1.00017721630081 -8.349605948023526e-07 -1.161320649821052e-06)
(1.000171705317463 -6.266674053760033e-07 -7.585349982718399e-07)
(1.000166990181439 -4.534818561258997e-07 -4.330881843998435e-07)
(1.0001630739484 -3.150755168249758e-07 -1.764154873868888e-07)
(1.000159953147878 -2.084569253388294e-07 1.915811742541859e-08)
(1.00015762128587 -1.285639946871498e-07 1.600472285620286e-07)
(1.00015607143381 -6.880155395773783e-08 2.511877701917171e-07)
(1.000155298033834 -2.152431611489317e-08 2.959176472689351e-07)
(1.00018929807114 -9.700180576928414e-07 -2.167484085506594e-06)
(1.000182864392028 -7.766806222404419e-07 -1.66010170710202e-06)
(1.000176952286206 -5.946958898334635e-07 -1.222560374705883e-06)
(1.000171622630894 -4.327689825612106e-07 -8.519966559110114e-07)
(1.000166916951377 -2.964254456534592e-07 -5.438540717220877e-07)
(1.000162861878538 -1.882379853378185e-07 -2.927879477327311e-07)
(1.000159473151543 -1.081784728968023e-07 -9.334986539427183e-08)
(1.000156759015646 -5.402848028007301e-08 5.952161269660598e-08)
(1.000154722970445 -2.180579397729969e-08 1.701660761419836e-07)
(1.000153365884699 -6.183585171044713e-09 2.419838073509332e-07)
(1.000152687521389 -8.927867261184985e-10 2.773024682076151e-07)
(1.000182365934039 -4.973712941666686e-07 -1.549198334623588e-06)
(1.000176895081769 -3.624304391541378e-07 -1.185764172663173e-06)
(1.000171825227409 -2.384314503077622e-07 -8.694901106399842e-07)
(1.000167219178867 -1.320147804297658e-07 -5.993674996239901e-07)
(1.000163123726594 -4.748695530273833e-08 -3.730292775729323e-07)
(1.000159572579346 1.311178188386981e-08 -1.873671717525774e-07)
(1.000156589170423 4.981652636817868e-08 -3.902426303681848e-08)
(1.000154189165121 6.447030217122366e-08 7.523250306279368e-08)
(1.000152382578529 6.041470604827928e-08 1.582437727962285e-07)
(1.000151175465263 4.216114113121551e-08 2.122732778894232e-07)
(1.000150571173945 1.505572923256848e-08 2.388881215919153e-07)
(1.000177319171021 -1.694584978427373e-07 -1.033624183448842e-06)
(1.000172524336601 -7.269710341735474e-08 -7.901091393817783e-07)
(1.000168050521191 1.26435290379847e-08 -5.767409975642306e-07)
(1.000163960295408 8.142259878453879e-08 -3.933512965525786e-07)
(1.000160302722486 1.302891790789947e-07 -2.388022437411333e-07)
(1.000157115291042 1.576957769181235e-07 -1.113800887819514e-07)
(1.000154425896322 1.637997649012762e-07 -9.121766389169774e-09)
(1.000152254706207 1.502848441877331e-07 6.992843211466188e-08)
(1.000150615804374 1.201292915250122e-07 1.275269590882597e-07)
(1.000149518545632 7.734091817141586e-08 1.650942701198853e-07)
(1.000148968588514 2.667258738374154e-08 1.8362320066676e-07)
(1.000174026528077 3.698884405916449e-08 -5.910878145514984e-07)
(1.000169661159997 1.107700019783784e-07 -4.512301133845566e-07)
(1.000165568134662 1.724963192154155e-07 -3.281266683602173e-07)
(1.000161809170095 2.179932137809271e-07 -2.218707308574885e-07)
(1.000158434132169 2.445546458770767e-07 -1.319799199640322e-07)
(1.000155482364293 2.509951313091764e-07 -5.76132576738811e-08)
(1.000152984156323 2.376003520091182e-07 2.243692451553909e-09)
(1.000150962199778 2.059993358071321e-07 4.862968911422197e-08)
(1.000149432918033 1.589793245047669e-07 8.249367359154846e-08)
(1.000148407595005 1.00260819987202e-07 1.046116547233672e-07)
(1.000147893253471 3.424640405034643e-08 1.155299243301242e-07)
(1.000172401616519 1.36661405919228e-07 -1.921919975403884e-07)
(1.000168244766263 1.996555115967164e-07 -1.465965604513475e-07)
(1.000164337248804 2.501943154688321e-07 -1.063715045860478e-07)
(1.000160740167724 2.845745855974967e-07 -7.15778041563708e-08)
(1.00015750359274 3.00412986662947e-07 -4.20860449354439e-08)
(1.000154667607309 2.967130894716985e-07 -1.764561379853732e-08)
(1.000152263533101 2.73837103829946e-07 2.055430777847214e-09)
(1.000150315185639 2.334008930335061e-07 1.734159072751794e-08)
(1.000148840049811 1.781106142023262e-07 2.851210549710459e-08)
(1.000147850294786 1.115570362219398e-07 3.581318015398663e-08)
(1.000147353573821 3.798079243937798e-08 3.941879643211729e-08)
(1.000184277291106 -1.642816249449302e-06 -5.367456631392213e-07)
(1.000179312093614 -1.102500958960806e-06 -2.129032108780391e-07)
(1.000176071280537 -6.332364183878924e-07 -8.590053796481197e-09)
(1.000199932207653 -3.052936597064515e-06 -1.641102773474116e-06)
(1.000191093525396 -2.283220050697101e-06 -1.002249639259336e-06)
(1.000280918357372 -8.455066717388163e-06 -1.018067313701546e-05)
(1.000256524874996 -6.05268705475133e-06 -8.086429458591612e-06)
(1.000236377076055 -4.248717610045222e-06 -6.333244611741198e-06)
(1.000219913027964 -2.900078116115944e-06 -4.88742823611903e-06)
(1.000206645447581 -1.898350564451535e-06 -3.706270496981682e-06)
(1.00019616849003 -1.162816403695699e-06 -2.744754358196307e-06)
(1.000188156165742 -6.343940974769638e-07 -1.958718231631504e-06)
(1.000182357291941 -2.708715634894197e-07 -1.306043066878074e-06)
(1.000178589674861 -4.338007079520072e-08 -7.4679415849844e-07)
(1.000176734970356 6.605620302235871e-08 -2.428321396350358e-07)
(1.000329289868278 -1.095601183410926e-05 -1.658138428124047e-05)
(1.000304107462558 -9.758592216956107e-06 -1.311365262994393e-05)
(1.000274409592736 -6.901112476596615e-06 -1.026859825443114e-05)
(1.000250287795636 -4.8066631635792e-06 -7.952220472084621e-06)
(1.000230853311306 -3.271806507037541e-06 -6.084059156562039e-06)
(1.000215376222122 -2.150521509666474e-06 -4.584368859077932e-06)
(1.0002032726957 -1.338393710684141e-06 -3.379817077038037e-06)
(1.000194088002307 -7.613508475455706e-07 -2.404740603398521e-06)
(1.000187479882122 -3.677502421877722e-07 -1.600530723297296e-06)
(1.000183204352576 -1.229273165391156e-07 -9.142773437043284e-07)
(1.000181104825943 -5.581817225267266e-09 -2.971668280795452e-07)
(1.000283451502147 -9.70332203114341e-06 -9.480995194804868e-06)
(1.000260480987656 -7.950420175013555e-06 -7.015479735560529e-06)
(1.000240970322962 -6.412262856634954e-06 -5.100912629560286e-06)
(1.000224589400615 -5.093156099967714e-06 -3.625272197672131e-06)
(1.00021101033265 -3.980681370482e-06 -2.496456104282907e-06)
(1.000310170085952 -1.163967567097926e-05 -1.262815303166457e-05)
(1.000466722279336 -1.065861407495059e-05 -3.997655294619105e-05)
(1.000440919985822 -1.220140455118929e-05 -3.45137528213079e-05)
(1.000413154800642 -1.250981074735982e-05 -2.910434052947561e-05)
(1.000384639774679 -1.235905688256884e-05 -2.514026015604038e-05)
(1.000356361574971 -1.19021891401336e-05 -2.063407493618116e-05)
(1.000391968715689 -6.901360757607994e-06 -2.835387228411582e-05)
(1.000374377701344 -7.967835339660428e-06 -2.514439620246247e-05)
(1.000354826500493 -8.431360396287188e-06 -2.182798406367128e-05)
(1.000334300787049 -8.482082985890518e-06 -1.86943769435439e-05)
(1.000313622452056 -8.206226939513345e-06 -1.56132790367793e-05)
(1.0002934839868 -7.645902681164278e-06 -1.277569540627301e-05)
(1.000336875063021 -4.538023517057343e-06 -2.036053274793822e-05)
(1.000324453646202 -5.269142339382951e-06 -1.832459570240266e-05)
(1.00031040335396 -5.658141937906063e-06 -1.613454621945591e-05)
(1.000295406729157 -5.757355573774546e-06 -1.393200563094217e-05)
(1.000280065630444 -5.614945014817757e-06 -1.178220890036451e-05)
(1.000264890879558 -5.278512096513479e-06 -9.770291528695911e-06)
(1.000295846279861 -2.982871917651715e-06 -1.469511724807346e-05)
(1.000286834391648 -3.478692142238906e-06 -1.335027776957413e-05)
(1.000276516018804 -3.765239075194836e-06 -1.187077802064299e-05)
(1.000265355789773 -3.858720998935194e-06 -1.034428329664408e-05)
(1.00025378416025 -3.785358477355727e-06 -8.836382433390192e-06)
(1.000242178942185 -3.577416803389028e-06 -7.403012264441624e-06)
(1.000265196674309 -1.940485404474515e-06 -1.058669356171025e-05)
(1.000258485353592 -2.268928512774711e-06 -9.682293255566826e-06)
(1.000250726227869 -2.464960999425351e-06 -8.67344262089642e-06)
(1.00024224112367 -2.534004948858575e-06 -7.616110683948937e-06)
(1.000233339833788 -2.490517909859413e-06 -6.557752559600986e-06)
(1.000224303910241 -2.354798728509261e-06 -5.537460467850262e-06)
(1.000242430380248 -1.237156190868045e-06 -7.544352376563138e-06)
(1.000237285285669 -1.446301033678288e-06 -6.934194939824425e-06)
(1.000231288399399 -1.570393120029947e-06 -6.246788309630587e-06)
(1.000224669087035 -1.611284669572255e-06 -5.518072661667453e-06)
(1.000217654892017 -1.577268500480669e-06 -4.780282620031761e-06)
(1.000210459203854 -1.481148400705488e-06 -4.060529645997286e-06)
(1.000225839410037 -7.652354914838233e-07 -5.235931537670546e-06)
(1.000221755156203 -8.905637518603215e-07 -4.830123536942518e-06)
(1.000216962197632 -9.606552826845999e-07 -4.369505190380673e-06)
(1.000211630256908 -9.761783949056159e-07 -3.876969083138473e-06)
(1.000205931902517 -9.42212138803977e-07 -3.373734007560585e-06)
(1.000200033424881 -8.671247056581918e-07 -2.878107766577101e-06)
(1.000214261302664 -4.57270822148979e-07 -3.425285051861772e-06)
(1.000210875306635 -5.259213955035442e-07 -3.167976885685924e-06)
(1.000206879938809 -5.578847248593639e-07 -2.874307967078254e-06)
(1.000202407259743 -5.535057610599393e-07 -2.558298632361821e-06)
(1.000197594261012 -5.162070287800479e-07 -2.233221872274919e-06)
(1.000192575958969 -4.518147500576842e-07 -1.910769460462315e-06)
(1.000206927938895 -2.716532565074708e-07 -1.935621836160526e-06)
(1.000203965699539 -3.052767379012744e-07 -1.793163792336791e-06)
(1.000200456580399 -3.13011713199314e-07 -1.629983765865178e-06)
(1.000196510496842 -2.951711877070698e-07 -1.453656912075005e-06)
(1.000192243175855 -2.543606374231114e-07 -1.271449312738288e-06)
(1.000187770599005 -1.950352055572485e-07 -1.089852060800754e-06)
(1.000203371863721 -1.843485146410503e-07 -6.258832358368576e-07)
(1.000200609822894 -2.012509212859596e-07 -5.802831193459061e-07)
(1.000197331049086 -1.972363885655554e-07 -5.279554812653114e-07)
(1.000193635200987 -1.726449835362325e-07 -4.712946235772597e-07)
(1.000189628062588 -1.29747661837878e-07 -4.126118492240751e-07)
(1.000185416618666 -7.240130201530349e-08 -3.539865467663802e-07)
(1.000206585162914 -6.554762068868114e-07 -1.757170736316594e-07)
(1.00053261349208 -5.048840612779862e-05 -1.579302457466265e-05)
(1.000443389617025 -3.59985867837504e-05 -1.035429861006912e-05)
(1.000377097567875 -2.606543437043904e-05 -6.85985933907182e-06)
(1.000327428205222 -1.899959419524938e-05 -4.565998305724571e-06)
(1.000289999772927 -1.387609921857598e-05 -3.032793019555023e-06)
(1.000261780185713 -1.009755093549976e-05 -1.994866543125186e-06)
(1.000240662581075 -7.258466493002529e-06 -1.288421246334062e-06)
(1.000225182000344 -5.074516994700331e-06 -8.10699706420954e-07)
(1.000214330029316 -3.338987063834005e-06 -4.969094266277611e-07)
(1.000207434729499 -1.894507191935024e-06 -3.068502150612331e-07)
(1.00020408475525 -6.13868632165104e-07 -2.171836987577774e-07)
(1.000495353147276 -4.307824865904359e-05 -1.716359385702232e-05)
(1.000417347646616 -3.121694586528959e-05 -1.146875757849733e-05)
(1.000358663544535 -2.289577707857487e-05 -7.715580818308279e-06)
(1.000314129584019 -1.687327335315556e-05 -5.192968789460017e-06)
(1.000280198436805 -1.243435202730408e-05 -3.475264068596299e-06)
(1.000254381972326 -9.113154693715881e-06 -2.295450267511718e-06)
(1.000234921177444 -6.587089714005095e-06 -1.483231565884146e-06)
(1.000220573605458 -4.624211629848416e-06 -9.290903595189637e-07)
(1.000210472866674 -3.051630081399793e-06 -5.626643993363558e-07)
(1.000204035857636 -1.734717502874731e-06 -3.396831800857039e-07)
(1.000200903078904 -5.626073170431593e-07 -2.341918986941837e-07)
(1.000455066542837 -3.519280373912309e-05 -1.74650936379404e-05)
(1.00038903530597 -2.621314470704103e-05 -1.18356045477497e-05)
(1.000338344367335 -1.956551026943353e-05 -8.061737787781762e-06)
(1.000299267069776 -1.46078375663444e-05 -5.48048633769126e-06)
(1.000269109304078 -1.087509789080586e-05 -3.693566642562752e-06)
(1.000245922466778 -8.03437441497739e-06 -2.448316919417306e-06)
(1.000228296213704 -5.84330802163289e-06 -1.58059708284038e-06)
(1.000215215146991 -4.121072434208847e-06 -9.827754324370603e-07)
(1.000205960257338 -2.728529631296579e-06 -5.84485411583166e-07)
(1.000200041900465 -1.554303531229591e-06 -3.408205226135481e-07)
(1.000197155671564 -5.046098062641212e-07 -2.251768207390279e-07)
(1.000414912303534 -2.821895047467955e-05 -1.664013891436312e-05)
(1.000360175347719 -2.147775587563128e-05 -1.150787038347779e-05)
(1.000317264037376 -1.631369036058777e-05 -7.951812236405615e-06)
(1.000283610333714 -1.234909609814156e-05 -5.462491058377268e-06)
(1.00025727003318 -9.293890841746766e-06 -3.706555886632039e-06)
(1.000236784412365 -6.924721933374788e-06 -2.463476704197088e-06)
(1.000221066945369 -5.069207459413097e-06 -1.58585358182717e-06)
(1.000209317397464 -3.592524542232573e-06 -9.747732591540789e-07)
(1.000200958925319 -2.386748213063127e-06 -5.643093292800735e-07)
(1.000195593358506 -1.362576463443007e-06 -3.117331562116541e-07)
(1.000192970800489 -4.428334832440737e-07 -1.914422960229638e-07)
(1.000376765662502 -2.212914796002838e-05 -1.515422108017677e-05)
(1.000332128329805 -1.721452065231196e-05 -1.068247269075985e-05)
(1.000296378744149 -1.330422454106393e-05 -7.489420989143566e-06)
(1.000267839203316 -1.021096491805408e-05 -5.198502754299822e-06)
(1.000245171210948 -7.768975878978733e-06 -3.549356269045409e-06)
(1.000227327923103 -5.837932739685283e-06 -2.362004105829012e-06)
(1.000213503677691 -4.301436597237718e-06 -1.511976380115633e-06)
(1.000203089628581 -3.063044455125503e-06 -9.134373009008262e-07)
(1.000195638023709 -2.041809521994428e-06 -5.079069023783291e-07)
(1.000190835117233 -1.168119822337835e-06 -2.568275885775999e-07)
(1.000188481919796 -3.800228464071131e-07 -1.368084147727528e-07)
(1.000341829987246 -1.70656495895969e-05 -1.33085681590629e-05)
(1.000305840518508 -1.353921292894712e-05 -9.554330024698039e-06)
(1.000276410921701 -1.063386435522834e-05 -6.791824179986614e-06)
(1.000252500002943 -8.26831477898114e-06 -4.759632087392962e-06)
(1.000233226632921 -6.356088666569848e-06 -3.26588915103181e-06)
(1.000217869271348 -4.814578471187692e-06 -2.171571366126272e-06)
(1.000205852223262 -3.568906129493456e-06 -1.3768468355581e-06)
(1.000196727955847 -2.552595440898724e-06 -8.10760656398937e-07)
(1.000190160072038 -1.706688148837956e-06 -4.237950175807194e-07)
(1.000185908968463 -9.782244602655974e-07 -1.826909065455683e-07)
(1.000183820941573 -3.185279125708117e-07 -6.700281761291943e-08)
(1.000310678181084 -1.296348720052839e-05 -1.136305475920926e-05)
(1.00028187144067 -1.046503581889238e-05 -8.291424810727886e-06)
(1.000257846549731 -8.338287392436699e-06 -5.966978992881449e-06)
(1.000237994036248 -6.559103635770678e-06 -4.215395774303358e-06)
(1.000221760744884 -5.088484414842284e-06 -2.901308544844201e-06)
(1.000208669551977 -3.881424623764652e-06 -1.921899076847665e-06)
(1.000198324293421 -2.892025508034016e-06 -1.200412944431128e-06)
(1.000190407344629 -2.07595507364654e-06 -6.805469993475724e-07)
(1.000184674234963 -1.391308704852853e-06 -3.220054476251935e-07)
(1.000180947745576 -7.985850421136024e-07 -9.719384930888185e-08)
(1.000179112798149 -2.602030412469127e-07 1.10864526206283e-08)
(1.000712773585993 -0.0001189162966381974 -3.938785495480303e-05)
(1.000600746862123 -5.998897196555292e-05 -2.725331753839766e-05)
(1.000541460408535 -4.730568209940155e-05 -2.618251313788504e-05)
(1.000484805866586 -3.709282053853269e-05 -2.412105527225874e-05)
(1.000432330575286 -2.824741869273914e-05 -2.145117699257219e-05)
(1.000385551078008 -2.127574364768722e-05 -1.840393351577624e-05)
(1.000344886209807 -1.583070925454067e-05 -1.539987900313981e-05)
(1.001294802009664 -4.584279883418423e-05 -1.917812021897158e-05)
(1.000817147990558 -4.898319510636847e-05 -1.72590432150518e-05)
(1.001118954043237 -3.459778643986684e-05 -1.911477604049742e-05)
(1.00072574271233 -0.0001020954127207672 -5.400394472223998e-05)
(1.000880065547147 -0.0001460490689771133 -0.0001003134782429197)
(1.000713589005288 -0.0001063378385636202 -6.460511351243455e-05)
(1.000748721535436 -0.0001029769400338304 -8.455111082052375e-05)
(1.000572993313604 -4.849991617447913e-05 -3.57961514781033e-05)
(1.000582458788883 -4.443992256014382e-05 -4.259878925502806e-05)
(1.000500327960832 -3.562830351143806e-05 -3.031369771563877e-05)
(1.000373980428022 -1.56346296735282e-05 -2.136348451976161e-05)
(1.000340427425781 -1.366096447771807e-05 -1.655262832463942e-05)
(1.000498440312378 -3.178961035103188e-05 -3.415765468229768e-05)
(1.000437562800537 -2.614097242885252e-05 -2.521095043226805e-05)
(1.000429601277637 -2.23833398709201e-05 -2.72141373485249e-05)
(1.000384532336284 -1.898511173854478e-05 -2.060100745889492e-05)
(1.014185316704207 -0.0003273512293581199 -0.0006161149434847538)
(1.009401173125218 -0.0002729270178196914 -0.0003242672086393687)
(1.005676453199455 -0.0003087831176582307 -0.0002703089968792049)
(1.003725549772649 -0.0001891437644693706 -0.000130328933831483)
(1.002525017373709 -0.0001156370303461379 -6.567934695471597e-05)
(1.001396585505693 -5.122730768146706e-05 -2.217015510213499e-05)
(1.000569995383702 -1.732237094275345e-05 -5.748703464971795e-05)
(1.000529978062343 -1.951707197184865e-05 -4.737734285951779e-05)
(1.000489852965968 -1.838855040564373e-05 -3.540314780662194e-05)
(1.000450029331254 -1.747980101242484e-05 -3.487535103190484e-05)
(1.000410817481887 -1.72980731070146e-05 -2.731007850937337e-05)
(1.000960974612864 -7.096774526120622e-06 -4.043085763464629e-05)
(1.000858277571857 -7.778684876023843e-05 -0.0001653886395840447)
(1.000988093264441 -1.398428866605357e-05 -3.097476323396813e-05)
(1.000826186276561 -3.798661675899492e-05 -4.067380249818306e-05)
(1.000638762581403 -5.181115195107971e-05 -0.0001074070580664428)
(1.000569399502085 -3.94359060261272e-05 -4.584366675295666e-05)
(1.00070285255843 -1.17997584344594e-05 -4.861712701046763e-05)
(1.000714071604408 -5.265042811958901e-05 -0.0001188468524482662)
(1.000895077501777 0.0002482897132076301 -0.0006898719327015691)
(1.000536141553685 -3.840453763470266e-05 -4.130748661239632e-05)
(1.000480414321645 -2.625545393388231e-05 -3.580897202541606e-05)
(1.005954772461666 -0.001343455843512334 -0.003126291817161082)
(1.004632263315294 -0.001300270431296254 -0.001995585344310417)
(1.00345302034066 -0.001034776636485262 -0.001177517917850313)
(1.002538532839226 -0.0007497119345957012 -0.0006761406272600134)
(1.00187537083496 -0.0005229412392710174 -0.000390227871237799)
(1.001196335462114 -3.805683794596457e-05 -2.170816996153298e-05)
(1.003629656307606 -0.0005640487462268637 -0.001567685597764009)
(1.00328561625735 -8.980231225849276e-05 -0.0001678229257422133)
(1.002593025571502 -7.954761845900972e-05 -0.0001111936182511105)
(1.002008412181188 -6.343375014289027e-05 -7.061199389862684e-05)
(1.001550857301491 -4.769236052522772e-05 -4.401749136642823e-05)
(1.000981603546738 -0.0001405758938254526 -0.0001416956666185165)
(1.002354504413997 -0.0002636718462371105 -0.0008568037620942142)
(1.002182044817326 -4.410376181842168e-05 -9.704179867877785e-05)
(1.001821918023801 -4.247696192288936e-05 -7.030158897006731e-05)
(1.001490502287324 -3.677685275953475e-05 -4.866291202291664e-05)
(1.001209011880322 -2.971673615791968e-05 -3.271238016456288e-05)
(1.000822188823124 -0.0001182043265472171 -0.0001029916184591032)
(1.001306812745386 -1.175699938955046e-05 -4.848428666569929e-05)
(1.001192317240573 -1.456388688695441e-05 -4.080529744805689e-05)
(1.001060203750131 -1.567803008969033e-05 -3.303695091420836e-05)
(1.000919159448724 -4.799537640288669e-06 -4.612386361646658e-05)
(1.000801444538031 -2.958547860876334e-05 -3.765015559403462e-05)
(1.000746835369292 -8.934615607412057e-05 -9.909268086635281e-05)
(1.000487651191491 -7.422970094807499e-06 -4.43238762030661e-05)
(1.000406221831226 -5.175330559576655e-06 -3.090619351747537e-05)
(1.000346908996061 -3.469466972561347e-06 -2.20133800218443e-05)
(1.000303082501978 -2.288246908989634e-06 -1.57955464084186e-05)
(1.000270549745063 -1.488410711531756e-06 -1.132567392449846e-05)
(1.000246508551769 -9.494523237174957e-07 -8.040550894310903e-06)
(1.000229059083119 -5.892371987331095e-07 -5.56429148854123e-06)
(1.000216918668893 -3.550691542451894e-07 -3.632624989786647e-06)
(1.000209245279992 -2.143455595567722e-07 -2.05008720782896e-06)
(1.000205528913505 -1.482764616954379e-07 -6.624699974571631e-07)
(1.000603952119937 -1.062741951257933e-05 -6.523499246048693e-05)
(1.000743975340267 -9.516272480660332e-06 -5.488588805355388e-05)
(1.000590757268625 -6.305358625143436e-05 -8.62006628317465e-06)
(1.000482033256246 -4.383844745256185e-05 -5.458784370369089e-06)
(1.000403648560072 -3.100793342319774e-05 -3.523783623907884e-06)
(1.000346192660425 -2.219617709781888e-05 -2.301934734974001e-06)
(1.000303615575137 -1.59888345280833e-05 -1.509681860749769e-06)
(1.000271930128702 -1.151369181159684e-05 -9.856011903250889e-07)
(1.000248458964896 -8.211166806748103e-06 -6.350577192722769e-07)
(1.000231387085155 -5.707054484145222e-06 -4.010852285791265e-07)
(1.000219488799791 -3.739709941467924e-06 -2.488642538900487e-07)
(1.000211958866891 -2.116287585146642e-06 -1.572704080189014e-07)
(1.000208309143791 -6.848516097094319e-07 -1.142247219886568e-07)
(1.000566211259863 -5.760389007404628e-05 -1.302376069774785e-05)
(1.000465712010167 -4.046915271524049e-05 -8.362956202417433e-06)
(1.000392510060122 -2.889080239455116e-05 -5.454240054394553e-06)
(1.000338372545369 -2.083702061277638e-05 -3.590888152940308e-06)
(1.000297971727654 -1.509730992336323e-05 -2.36788415099775e-06)
(1.00026774115168 -1.091982545709592e-05 -1.551005783173351e-06)
(1.000245252714222 -7.813548222989303e-06 -1.000575716639905e-06)
(1.000228842644132 -5.443991728996534e-06 -6.311572085081977e-07)
(1.000217378253841 -3.573474196835045e-06 -3.898498690685139e-07)
(1.000210110974259 -2.024433431883661e-06 -2.442523638549185e-07)
(1.000804696209564 -0.0001496688856215989 -2.015377816134716e-05)
(1.000670308453063 -4.872933046755789e-05 -9.825088427063325e-06)
(1.001499535215417 -0.0004693579848940855 -7.127695953391325e-05)
(1.000887911898161 -0.0001834039799951752 -4.084122392756425e-05)
(1.001337731421532 -4.879145961083787e-05 -1.880041578071097e-05)
(1.000854323714914 -5.273743197962534e-05 -1.531269873386766e-05)
(1.006050356566906 -0.000441100590783532 -0.0001100814503860395)
(1.003578238026317 -0.0002147781254135099 -4.415546888959883e-05)
(1.001633334976818 -0.0005317778461027281 -8.34986871847868e-05)
(1.015568910281054 -0.0003811522830776444 -0.0006948679744292893)
(1.01008606642851 -0.0002941216011169289 -0.0003395615414669762)
(1.0062757026791 -0.0003670640791256053 -0.0002964281848331581)
(1.004010504580915 -0.0002151685867873657 -0.0001366115066729643)
(1.002668042862119 -0.000127583974682624 -6.673815623553812e-05)
(1.001445883751471 -5.470497749799666e-05 -2.180215473521501e-05)
(1.027557933189077 -0.01030967603065788 -0.008838992146491219)
(1.049539744950897 -0.00176497772172521 -0.00341149055156131)
(1.036230365514784 -0.001541611728820621 -0.002033757901315722)
(1.080305479793839 -0.03995252539923605 -0.06395571104027571)
(1.063283252131023 -0.001965986568603891 -0.002129696784666081)
(1.05086561705852 -0.02524957447178372 -0.02732977563808696)
(1.093322811747843 -0.002333005785291774 -0.004020320003687116)
(1.057616523729719 -0.04773669199218524 -0.07505207255422305)
(1.047674709242848 -0.02822002499984631 -0.03064514669415978)
(1.000499381744901 -4.958648443449639e-06 -4.405993807763783e-05)
(1.000415829508419 -3.307262564128676e-06 -3.20756183259587e-05)
(1.000353900974821 -2.195179584348527e-06 -2.307837356440639e-05)
(1.000308140529409 -1.443405540674413e-06 -1.65600426239042e-05)
(1.00027427937371 -9.37832566209353e-07 -1.184700708419953e-05)
(1.00024933792785 -5.98502766877771e-07 -8.390815719173072e-06)
(1.00023128405305 -3.724518676128572e-07 -5.795471554113534e-06)
(1.000218749049043 -2.258979611342003e-07 -3.778200283315034e-06)
(1.00021083766151 -1.380027192506718e-07 -2.130292197658878e-06)
(1.000207009277085 -9.678683710516182e-08 -6.880793136517205e-07)
(1.000665104723694 2.227411038560533e-05 -0.0001240400305783497)
(1.000976212628319 -5.50505771651435e-06 -3.993120119217791e-05)
(1.000761982290955 -7.637942584895466e-06 -4.559423422472749e-05)
(1.006277223440986 -0.001295320081160685 -0.003399144014303055)
(1.003769298761078 -0.0005300656201144987 -0.001674970676207678)
(1.00242149991401 -0.0002441073183264959 -0.0009003890918101626)
(1.001330789867057 -1.070962040006731e-05 -5.017232491856683e-05)
(1.014841288064876 -0.0003284816586978105 -0.0006633605328967621)
(1.001045204120026 -3.364975549231374e-05 -1.306523419210063e-05)
(1.001005797221619 -0.0002413874796474124 -9.393580055513653e-05)
(1.00123964896993 -0.0003287214915290572 -0.0001382856540290573)
(1.001162921201513 -3.722320476206723e-05 -1.927077806913044e-05)
(1.001117253909105 -0.0002695207682453233 -0.0001404075532668929)
(1.000955567841633 -3.806157552410348e-05 -1.358306300604488e-05)
(1.000933048870187 -0.0001937489796109363 -8.982568316965399e-05)
(1.001076117777369 -0.0002511521841422879 -0.0001391601723442239)
(1.000965080729226 -0.0002057306853203543 -6.69985793267309e-05)
(1.000988863396742 -2.629500190270215e-05 -1.795800656326733e-05)
(1.000924661101506 -4.541150036119801e-05 -1.113316916081723e-05)
(1.000898621263297 -0.0001491565020937322 -0.0001165465487351855)
(1.000867168303393 -4.680881478229541e-05 -2.804906523759684e-05)
(1.000848223227549 -0.0001461201849158575 -8.241461134041786e-05)
(1.01069586400914 -0.004247016130296109 -0.007916288779662446)
(1.006806185042851 -0.001743089568996991 -0.003757700407415636)
(1.007853522023627 -0.0001275211497356223 -0.0003543255538491301)
(1.009928688050717 -0.0002734189504829954 -0.0003431572443374553)
(1.007949867509617 -0.003635038545561365 -0.004516835752446947)
(1.005584198390725 -0.001660541028074251 -0.002641149693620828)
(1.006408930534436 -0.0002553922758122838 -0.0004062566698858563)
(1.007481211671946 -0.003454676338347831 -0.004143178917711524)
(1.006327723863996 -0.0003471118727499566 -0.0003257915495196283)
(1.005505287487478 -0.002255992356281658 -0.002114863255919537)