/*--------------------------------*- C++ -*----------------------------------*\
  =========                 |
  \\      /  F ield         | OpenFOAM: The Open Source CFD Toolbox
   \\    /   O peration     | Website:  https://openfoam.org
    \\  /    A nd           | Version:  7
     \\/     M anipulation  |
\*---------------------------------------------------------------------------*/
FoamFile
{
    version     2.0;
    format      ascii;
    class       volVectorField;
    location    "0";
    object      grad(Phi);
}
// * * * * * * * * * * * * * * * * * * * * * * * * * * * * * * * * * * * * * //

dimensions      [0 1 -1 0 0 0 0];

internalField   nonuniform List<vector> 
12684
(
(-0.9999727455319761 0.0002496687984008258 7.906847653428436e-06)
(-0.9999606450789901 0.0002122535544164525 6.75098317417212e-06)
(-0.9999534691613711 0.0001784168495611029 5.698549783406863e-06)
(-0.9999496990803012 0.0001482234759964118 4.753310629270533e-06)
(-0.999948169981277 0.0001214429688951581 3.909454555517037e-06)
(-0.9999480163591246 9.768705759771749e-05 3.15592530658803e-06)
(-0.9999486113444044 7.649480215354857e-05 2.479176567486253e-06)
(-0.9999495115936847 5.738161609136758e-05 1.864785334945377e-06)
(-0.9999504121852909 3.98646445146088e-05 1.29830051477407e-06)
(-0.9999511122686509 2.347325857704497e-05 7.65605193770785e-07)
(-0.999951523407454 7.750524114169403e-06 2.529833541542444e-07)
(-1.000006521468133 0.0002132016362754735 6.285033980583226e-06)
(-0.9999922096735659 0.0001840754854929297 5.456098845919592e-06)
(-0.9999823346915727 0.0001568424090350185 4.674050182972391e-06)
(-0.999975769977714 0.0001318365691636015 3.949565976154231e-06)
(-0.9999715937245456 0.0001091009495546301 3.284899050334143e-06)
(-0.9999690804200891 8.849515972519914e-05 2.676930056932293e-06)
(-0.9999676764696003 6.977025334575764e-05 2.119326013135602e-06)
(-0.9999669713841214 5.261771660014517e-05 1.603970121013472e-06)
(-0.9999666706601483 3.66996545971276e-05 1.121849882339373e-06)
(-0.9999665731892393 2.166598238284582e-05 6.635672857168026e-07)
(-0.9999665538784424 7.163047572589244e-06 2.195988650998376e-07)
(-1.000032120486928 0.0001798150634730882 5.004608391700907e-06)
(-1.00001700430623 0.0001573931676810416 4.411079954145923e-06)
(-1.0000057080777 0.0001357457579249658 3.830793787747858e-06)
(-0.9999974405397816 0.0001153184229327754 3.276395381943981e-06)
(-0.9999915113907151 9.630275919580968e-05 2.753833156115888e-06)
(-0.9999873470553333 7.871362258793364e-05 2.264352104072809e-06)
(-0.9999844887875295 6.244822054901604e-05 1.806041409237115e-06)
(-0.9999825821924333 4.73287420847956e-05 1.374961862771748e-06)
(-0.9999813639195079 3.313164464530132e-05 9.659262445219919e-07)
(-0.9999806488756752 1.960689134941622e-05 5.730158122326303e-07)
(-0.9999802934908509 6.490079617310664e-06 1.899094983684356e-07)
(-1.00005134685736 0.0001497531586096554 4.002136429646337e-06)
(-1.000036278979114 0.0001326582338851961 3.57671245448752e-06)
(-1.000024409436321 0.000115642811354899 3.145488295026346e-06)
(-1.000015212976443 9.916844401458584e-05 2.720629770940578e-06)
(-1.00000819852489 8.349096764481703e-05 2.309307262871449e-06)
(-1.000002934958736 6.871196671209846e-05 1.914909495216074e-06)
(-0.9999990613501034 5.482206858475904e-05 1.53807998625534e-06)
(-0.999996287960025 4.173497358606058e-05 1.1775408359964e-06)
(-0.9999943925108837 2.931293322039342e-05 8.307155434803848e-07)
(-0.9999932147542674 1.738517187202526e-05 4.941843289374969e-07)
(-0.9999926052985731 5.760964247772408e-06 1.640119925312833e-07)
(-1.000065667426177 0.0001229132009539224 3.223844783343221e-06)
(-1.000051114653485 0.0001100066598327397 2.917675343197777e-06)
(-1.000039197867571 9.678764833065383e-05 2.595643258704835e-06)
(-1.000029592383492 8.368139327541412e-05 2.268425048720921e-06)
(-1.000021967868018 7.095481961716385e-05 1.943131983286745e-06)
(-1.000016015954393 5.874862164412228e-05 1.623995104187132e-06)
(-1.000011465780656 4.710714664779569e-05 1.313018530683561e-06)
(-1.000008091327798 3.600392332769878e-05 1.010547276356907e-06)
(-1.000005713721222 2.536229067279235e-05 7.157336588690668e-07)
(-1.000004200844648 1.507150294874362e-05 4.269081032283433e-07)
(-1.000003405533931 4.999142402123405e-06 1.418712411955226e-07)
(-1.000076234402776 9.899196843043974e-05 2.625887407468725e-06)
(-1.000062404531737 8.93663172736316e-05 2.403758393251829e-06)
(-1.000050734702878 7.924553140159482e-05 2.16100563276872e-06)
(-1.000041045805157 6.8993639071202e-05 1.906573608507271e-06)
(-1.000033131296522 5.885758053669745e-05 1.646944094481504e-06)
(-1.000026782631705 4.898585818680081e-05 1.386484923530292e-06)
(-1.00002180604842 3.944811948830568e-05 1.127836030238547e-06)
(-1.000018032816 3.025338203788139e-05 8.722815787989642e-07)
(-1.000015324931262 2.136585706474793e-05 6.200831179407554e-07)
(-1.000013577902538 1.271814994918679e-05 3.707664771676592e-07)
(-1.00001265125201 4.222111714496958e-06 1.233658002649332e-07)
(-1.000083928758103 7.758176222583134e-05 2.173591907411782e-06)
(-1.000070861090514 7.053548477364834e-05 2.010130506246265e-06)
(-1.000059570545774 6.295171714842941e-05 1.824245900454143e-06)
(-1.000049980334356 5.512439885824177e-05 1.623280178658352e-06)
(-1.000041975648902 4.726390466402998e-05 1.412915766607658e-06)
(-1.000035425415442 3.950705264699215e-05 1.197321191005494e-06)
(-1.000030198256805 3.19293196419102e-05 9.793607350075565e-07)
(-1.000026173590221 2.45572930047677e-05 7.608264031356084e-07)
(-1.000023248953311 1.738025333353209e-05 5.426673776397011e-07)
(-1.000021344589998 1.036042273505621e-05 3.252046482220225e-07)
(-1.000020328523993 3.441847069768356e-06 1.083273237893736e-07)
(-1.000089407177997 5.822905537478092e-05 1.840319093437671e-06)
(-1.000077034576815 5.323660354616958e-05 1.717106722495622e-06)
(-1.000066145788793 4.775568237258575e-05 1.571181008500375e-06)
(-1.000056733617641 4.200958356981308e-05 1.408568367293526e-06)
(-1.000048748642733 3.616436305353701e-05 1.234193726589751e-06)
(-1.000042117216727 3.033368527227679e-05 1.051909756908804e-06)
(-1.000036755808062 2.45860586089996e-05 8.64595332860446e-07)
(-1.000032581882309 1.895295994913673e-05 6.742924238890491e-07)
(-1.000029521801532 1.343690160421355e-05 4.823600132041015e-07)
(-1.000027516308802 8.018945627352755e-06 2.89632056744168e-07)
(-1.000026441894639 2.665504599624889e-06 9.657277585280751e-08)
(-1.000093144303791 4.046730642115444e-05 1.606296729834999e-06)
(-1.000081334463516 3.715094283007765e-05 1.509707134662241e-06)
(-1.00007079756575 3.345265544507653e-05 1.390744105870282e-06)
(-1.000061571653676 2.952805211808863e-05 1.254453998333472e-06)
(-1.0000536515472 2.549600898738015e-05 1.105149646463226e-06)
(-1.000047003719886 2.144070464338287e-05 9.46376028700326e-07)
(-1.000041578982128 1.741563445389893e-05 7.809421607163453e-07)
(-1.000037322747226 1.344858097185318e-05 6.109969773651769e-07)
(-1.000034182967633 9.546843754204661e-06 4.381318991746309e-07)
(-1.000032115987003 5.702321972778153e-06 2.634979152572921e-07)
(-1.00003100549694 1.896272094847886e-06 8.792943007806846e-08)
(-1.000095466919749 2.383281503481867e-05 1.457607412669761e-06)
(-1.000084049227791 2.193950763595962e-05 1.377184132435049e-06)
(-1.000073768679506 1.980512426991125e-05 1.274842613390284e-06)
(-1.000064690264099 1.75212164690296e-05 1.154986866545743e-06)
(-1.000056835990208 1.515894303349982e-05 1.021508520560467e-06)
(-1.000050197591261 1.276976416242365e-05 8.777203949397387e-07)
(-1.000044747931734 1.038740868153367e-05 7.263516233537593e-07)
(-1.000040450673008 8.030526930769008e-06 5.695878282133558e-07)
(-1.000037268060531 5.705610139850007e-06 4.091421822181738e-07)
(-1.000035166880461 3.409916105812137e-06 2.463463429109679e-07)
(-1.000034035986815 1.134272499134317e-06 8.225328560019724e-08)
(-1.000096579205838 5.24662923018234e-06 1.385408275885658e-06)
(-1.000085362154281 4.836394127405432e-06 1.31261574471051e-06)
(-1.000075215856917 4.371344903386521e-06 1.21819425945924e-06)
(-1.000066217834912 3.871609186578649e-06 1.10623131957442e-06)
(-1.000058402999506 3.35296436126953e-06 9.804054178458999e-07)
(-1.000051775254238 2.82693632081003e-06 8.439064293964762e-07)
(-1.00004631821936 2.30118904287478e-06 6.994145457125317e-07)
(-1.000042004545768 1.780077903745744e-06 5.491240644111144e-07)
(-1.000038803578457 1.26527386989924e-06 3.947995665865836e-07)
(-1.000036687324643 7.563992863168777e-07 2.378541477033905e-07)
(-1.000035547319343 2.516444151113028e-07 7.944180066264582e-08)
(-0.9999764672718033 0.000243989122060917 3.478251293966156e-05)
(-0.9999640758274665 0.0002077793213883791 2.974605396133214e-05)
(-0.9999565726883605 0.0001749185154586996 2.514467257792048e-05)
(-0.99995247856753 0.0001455070014824147 2.099981610378672e-05)
(-0.9999506516334745 0.000119350594971035 1.728999300835274e-05)
(-0.9999502383981416 9.609416169986706e-05 1.39697956332956e-05)
(-0.9999506172225749 7.53053632635004e-05 1.098207894420963e-05)
(-0.9999513461689808 5.65236544106671e-05 8.265179874442372e-06)
(-0.999952119840153 3.928627301091902e-05 5.756793815394912e-06)
(-0.9999527362435253 2.313958924080051e-05 3.395707598234654e-06)
(-0.9999531024111123 7.641483968132131e-06 1.122217224687435e-06)
(-1.000009134053959 0.0002086928002795754 2.769505396528627e-05)
(-0.9999947124519661 0.0001804402787046748 2.407495422962886e-05)
(-0.9999846751979954 0.0001539407166846198 2.064897099891035e-05)
(-0.9999779281232237 0.0001295420758329336 1.746669658655876e-05)
(-0.9999735708553485 0.0001073056091662748 1.454038573370499e-05)
(-0.9999708912210572 8.711003707129166e-05 1.185827625647799e-05)
(-0.9999693433895007 6.872448979633489e-05 9.394060429408253e-06)
(-0.9999685210345387 5.185674084873251e-05 7.113208547607473e-06)
(-0.9999681316431243 3.618328742727168e-05 4.976939469949611e-06)
(-0.9999679749006413 2.136678102224186e-05 2.944538219527202e-06)
(-0.9999679234696013 7.065057832350577e-06 9.745729112456853e-07)
(-1.000033951527447 0.0001762684190635969 2.20871007553408e-05)
(-1.000018827911062 0.0001544734066800668 1.94896023709584e-05)
(-1.000007470891232 0.0001333710278490496 1.694276533066172e-05)
(-0.9999991136750486 0.0001134091827568185 1.450364195906146e-05)
(-0.9999930836722363 9.478710766885869e-05 1.219977218098212e-05)
(-0.9999888195175113 7.752976921526738e-05 1.003784155395594e-05)
(-0.9999858705187972 6.154521332868423e-05 8.010442618418127e-06)
(-0.9999838873713497 4.666625373128688e-05 6.101033109246801e-06)
(-0.9999826097999794 3.267934665457401e-05 4.287393690393853e-06)
(-0.9999818544731203 1.934374282727692e-05 2.54393775850535e-06)
(-0.9999814770474585 6.403721440284506e-06 8.432019415165864e-07)
(-1.000052631064728 0.0001469866151466711 1.768788520092579e-05)
(-1.000037609843181 0.0001303381231503303 1.582242236486019e-05)
(-1.000025739421919 0.0001137239167829929 1.392649127714846e-05)
(-1.000016512043404 9.760249010404294e-05 1.205441858680943e-05)
(-1.00000945026889 8.223148546560033e-05 1.023857950715829e-05)
(-1.000004133115398 6.771712637299029e-05 8.49464947174313e-06)
(-1.000000206904985 5.405612232700622e-05 6.826119674335586e-06)
(-0.9999973869012131 4.116882949645184e-05 5.227908158378374e-06)
(-0.9999954541540286 2.892424116768262e-05 3.689107108186514e-06)
(-0.9999942505258558 1.715818310982216e-05 2.195004727725755e-06)
(-0.9999936267410334 5.686333383950173e-06 7.285523155856361e-07)
(-1.000066571028492 0.0001207750997944679 1.426654707648382e-05)
(-1.000052090609425 0.0001081843919161771 1.292155648291821e-05)
(-1.000040206524278 9.52581841946465e-05 1.150336428292062e-05)
(-1.000030606106366 8.241669888020525e-05 1.00594316985707e-05)
(-1.000022969035967 6.992579112341526e-05 8.621574839706384e-06)
(-1.00001699488065 5.792767632739611e-05 7.208917474184605e-06)
(-1.000012418815674 4.646980335898392e-05 5.830730653747961e-06)
(-1.000009019252509 3.552968126740991e-05 4.488916711537838e-06)
(-1.000006620446366 2.503505815454326e-05 3.180061327118818e-06)
(-1.000005092380904 1.487976450045835e-05 1.897074152136241e-06)
(-1.000004288502959 4.935995639138165e-06 6.304884248422637e-07)
(-1.000076874477745 9.73603255696177e-05 1.163401632520909e-05)
(-1.00006312675878 8.79563815447963e-05 1.065654566346436e-05)
(-1.000051507114954 7.804711050574109e-05 9.585827013629695e-06)
(-1.000041844436475 6.79913604337834e-05 8.461540177770255e-06)
(-1.000033939291443 5.803385177149962e-05 7.312565392019342e-06)
(-1.000027589103162 4.832298978596509e-05 6.15847742636613e-06)
(-1.000022604900045 3.892975827002332e-05 5.011219347391921e-06)
(-1.000018821646417 2.986542282412684e-05 3.876727765564619e-06)
(-1.000016104070795 2.109698623498084e-05 2.756396416585687e-06)
(-1.000014349588371 1.256014636730196e-05 1.648342861974116e-06)
(-1.000013418575308 4.169998842812366e-06 5.48490971813587e-07)
(-1.000084387802346 7.636132573796154e-05 9.640247609567172e-06)
(-1.000071403824489 6.946872235658074e-05 8.919789885467445e-06)
(-1.00006017154539 6.203538246429828e-05 8.098703297596863e-06)
(-1.0000506193651 5.435071214421325e-05 7.209532314225573e-06)
(-1.000042637406615 4.662266748534104e-05 6.277545862717992e-06)
(-1.000036098974152 3.898726622741955e-05 5.321352565762688e-06)
(-1.000030876382636 3.152035641562637e-05 4.353805885562369e-06)
(-1.000026852024544 2.424970271053265e-05 3.383015606133735e-06)
(-1.000023925722823 1.716629065295901e-05 2.413354691582591e-06)
(-1.000022019368296 1.023437461761256e-05 1.446405825433377e-06)
(-1.00002100193156 3.40022219255667e-06 4.818306214245577e-07)
(-1.000089743780956 5.734772179533129e-05 8.169622961209762e-06)
(-1.000077452702054 5.24591600938873e-05 7.625753159050156e-06)
(-1.000066625125167 4.708220637028578e-05 6.980302335594475e-06)
(-1.000057257151454 4.14365857539512e-05 6.259978825605577e-06)
(-1.00004930273736 3.568622640259829e-05 5.486663932289423e-06)
(-1.000042691414232 2.994382403798135e-05 4.677522995875355e-06)
(-1.000037342463562 2.427780118108287e-05 3.845426624345288e-06)
(-1.00003317571218 1.872018923410052e-05 2.99954604593613e-06)
(-1.000030119398888 1.327449827159817e-05 2.146027944613941e-06)
(-1.000028115656831 7.923079810068241e-06 1.288690474125813e-06)
(-1.000027041936105 2.633815014751952e-06 4.297101968103961e-07)
(-1.000093400879911 3.9872736488533e-05 7.136126047321592e-06)
(-1.000081669339914 3.662284880623362e-05 6.709201613952764e-06)
(-1.00007119411973 3.299227258124488e-05 6.182387719651458e-06)
(-1.000062015345068 2.91340951437126e-05 5.578053314328378e-06)
(-1.000054130168331 2.516558732801324e-05 4.915354316949318e-06)
(-1.000047507399373 2.117008902746669e-05 4.21007021304868e-06)
(-1.00004210001744 1.720086297662967e-05 3.474735585882938e-06)
(-1.000037855327454 1.328591490357133e-05 2.718968685602317e-06)
(-1.000034722832247 9.433094623922924e-06 1.949920600939414e-06)
(-1.000032660051553 5.635074524501573e-06 1.172790937238518e-06)
(-1.000031551614792 1.874025743919732e-06 3.913752594939483e-07)
(-1.000095675342224 2.348964904386168e-05 6.479101198174372e-06)
(-1.000084333165961 2.163331208371316e-05 6.123253508284929e-06)
(-1.000074113878829 1.953705575852273e-05 5.669631598686517e-06)
(-1.000065083836707 1.729094195024326e-05 5.137762798649834e-06)
(-1.000057266743476 1.496514396404073e-05 4.544931530160474e-06)
(-1.000050656138583 1.261057032064806e-05 3.905877553527451e-06)
(-1.000045226637686 1.02607497082242e-05 3.232767552732578e-06)
(-1.000040943480533 7.93440294100109e-06 2.535367528382128e-06)
(-1.000037770239268 5.638290266007874e-06 1.821353630030931e-06)
(-1.000035674725711 3.370076681219462e-06 1.096712511748062e-06)
(-1.000034546703946 1.121086360578214e-06 3.66195741689785e-07)
(-1.000096765029517 5.1718515527988e-06 6.159958940082346e-06)
(-1.000085621933199 4.769519725833531e-06 5.837678947504556e-06)
(-1.000075536489863 4.312673393957923e-06 5.418949052333307e-06)
(-1.000066587256862 3.821112370072616e-06 4.921896940036218e-06)
(-1.000058810539961 3.310393290600861e-06 4.362860934319129e-06)
(-1.000052211793629 2.791914713640209e-06 3.756031556537429e-06)
(-1.000046776184819 2.273289926746378e-06 3.113352620628987e-06)
(-1.000042477786896 1.758883291236281e-06 2.444622035515022e-06)
(-1.000039287158507 1.250419017995107e-06 1.757737241184661e-06)
(-1.000037177255458 7.476037984233081e-07 1.059039595191776e-06)
(-1.000036040505308 2.487325199974144e-07 3.537224881505039e-07)
(-0.9999835337516924 0.0002331447431367373 5.542779316049745e-05)
(-0.9999706271279361 0.0001992049532035798 4.755112464591995e-05)
(-0.9999625277648665 0.0001681922920824253 4.03071990225283e-05)
(-0.9999578342841411 0.0001402689043956682 3.374432439946738e-05)
(-0.9999554510739069 0.0001153057758120911 2.784050265699776e-05)
(-0.9999545495558337 9.300830353353727e-05 2.25332687313311e-05)
(-0.9999545196964403 7.29970236590383e-05 1.773913495070326e-05)
(-0.9999549234961393 5.485626213741493e-05 1.336541286849506e-05)
(-0.9999554555672908 3.816106018084128e-05 9.316807255803091e-06)
(-0.9999559123658337 2.248998496726121e-05 5.498595107337456e-06)
(-0.999956192655523 7.429124664198935e-06 1.817670322705199e-06)
(-1.000014113282661 0.0002000528165131414 4.427912567364922e-05)
(-0.9999995074023528 0.0001734527320600426 3.85928444400963e-05)
(-0.9999891789584171 0.0001483475765289291 3.317854385392703e-05)
(-0.9999820967267388 0.0001251083887994218 2.812296014106621e-05)
(-0.9999774024456018 0.000103828935126282 2.345273793734562e-05)
(-0.9999744105427256 8.442277871445452e-05 1.915517437605219e-05)
(-0.999972591004013 6.669248715118786e-05 1.519317522200896e-05)
(-0.9999715462594009 5.037627887904969e-05 1.151540783611013e-05)
(-0.9999709882115594 3.517777589623362e-05 8.062810417250768e-06)
(-0.9999707184974609 2.078379219169757e-05 4.772504765370882e-06)
(-0.9999706057701448 6.874067457876597e-06 1.57995786865094e-06)
(-1.000037453304589 0.0001694504958242863 3.542008964199191e-05)
(-1.00002233236792 0.0001488459025353883 3.132331353145613e-05)
(-1.000010872108127 0.0001287831896417124 2.728370266385136e-05)
(-1.000002352925544 0.0001097128492901777 2.339641498093204e-05)
(-0.999996136683992 9.18473170326006e-05 1.970952970210959e-05)
(-0.9999916860038088 7.522986627517256e-05 1.623744311995573e-05)
(-0.999988566196276 5.978856762411943e-05 1.297147112747356e-05)
(-0.9999864382073944 4.537610953880831e-05 9.887730607616226e-06)
(-0.9999850480539783 3.179781827061813e-05 6.952717930857196e-06)
(-0.9999842160742722 1.883058880433611e-05 4.127101967912309e-06)
(-0.9999837966519036 6.23527257180565e-06 1.36822864831068e-06)
(-1.000055094831921 0.0001416532994422678 2.844394088447637e-05)
(-1.000040174708535 0.000125855614929726 2.549043116749623e-05)
(-1.000028312011662 0.0001100091459840244 2.24728859176854e-05)
(-1.000019032599348 9.456551195907751e-05 1.948030924873262e-05)
(-1.000011885428617 7.97849775413529e-05 1.656684925584137e-05)
(-1.000006469292134 6.578200962947804e-05 1.375987423078172e-05)
(-1.000002444760749 5.256450976420782e-05 1.106701866282478e-05)
(-0.9999995370087542 4.006528160271913e-05 8.481889846157268e-06)
(-0.9999975337322939 2.81660532727157e-05 5.988463636583979e-06)
(-0.9999962810431595 1.671520599400009e-05 3.564362248009328e-06)
(-0.9999956300411613 5.540653819788287e-06 1.183267645693377e-06)
(-1.000068309638979 0.0001166431224755015 2.300014612899315e-05)
(-1.000053976521379 0.0001046562875348655 2.086303933079868e-05)
(-1.000042162211098 9.229196034343798e-05 1.859852736003106e-05)
(-1.000032577093986 7.996019778033787e-05 1.628374266139806e-05)
(-1.000024920186321 6.792430499791279e-05 1.397103251166556e-05)
(-1.000018906471586 5.63290148828389e-05 1.169246713882379e-05)
(-1.000014282924303 4.522742845203267e-05 9.464251621393478e-06)
(-1.000010836663886 3.460448649228455e-05 7.29063635899311e-06)
(-1.000008398129587 2.439626888506293e-05 5.167184974150347e-06)
(-1.000006841473725 1.450531744492942e-05 3.08341604683443e-06)
(-1.000006021430202 4.812650296073809e-06 1.024918775303777e-06)
(-1.000078109336889 9.420044398256173e-05 1.879917623795756e-05)
(-1.000064525870667 8.522163044055766e-05 1.724081990451102e-05)
(-1.000053008101417 7.571927538108092e-05 1.552590207727204e-05)
(-1.000043400254693 6.604195756598747e-05 1.371867208439748e-05)
(-1.000035516611514 5.642983623910228e-05 1.186628961417958e-05)
(-1.00002916616868 4.703088024593527e-05 1.000107711800057e-05)
(-1.00002416928914 3.791844740697056e-05 8.143107154602032e-06)
(-1.000020368168321 2.910798446442709e-05 6.302753083350647e-06)
(-1.000017632901341 2.057176804937109e-05 4.48301304841629e-06)
(-1.000015864661749 1.22513863251017e-05 2.681541724324966e-06)
(-1.000014925553383 4.068144703814335e-06 8.92402457436587e-07)
(-1.00008527560995 7.399364052740333e-05 1.560965057120503e-05)
(-1.00007245768998 6.739644967979083e-05 1.445742252848001e-05)
(-1.000061341883972 6.025313801760716e-05 1.313854180651219e-05)
(-1.000051866533128 5.284421031492835e-05 1.170562875071601e-05)
(-1.000043931263642 4.537279243788106e-05 1.019979759503988e-05)
(-1.000037417860418 3.797320698684095e-05 8.651553692347946e-06)
(-1.000032205820084 3.072189146446908e-05 7.082180684064622e-06)
(-1.000028183343243 2.364878336658102e-05 5.505322639098865e-06)
(-1.000025254727726 1.67480859875613e-05 3.928579468955277e-06)
(-1.000023345097071 9.987925619070448e-06 2.355021724367301e-06)
(-1.000022325310493 3.318824124229369e-06 7.845927923389268e-07)
(-1.000090396284443 5.563550089959795e-05 1.325224946230892e-05)
(-1.000078266373177 5.094706569352942e-05 1.237988272842398e-05)
(-1.000067560340782 4.577092695257086e-05 1.134036246315486e-05)
(-1.000058280600273 4.031983746277668e-05 1.017686362840605e-05)
(-1.000050387614842 3.475352180970513e-05 8.924932041501571e-06)
(-1.000043817069653 2.918271426410868e-05 7.612605817351913e-06)
(-1.00003849371276 2.367559294147445e-05 6.261048104202305e-06)
(-1.000034341973798 1.826519706715773e-05 4.885473567672174e-06)
(-1.000031293759089 1.29569162960474e-05 3.496215721851544e-06)
(-1.000029293923612 7.735558778865219e-06 2.099839169464394e-06)
(-1.000028221818711 2.571818689053911e-06 7.00245578740251e-07)
(-1.000093899287125 3.871640888086783e-05 1.159294386795794e-05)
(-1.000082322263927 3.559478247749929e-05 1.090635472986261e-05)
(-1.000071969112203 3.209517503899335e-05 1.005592523770176e-05)
(-1.000062883938271 2.836575694731297e-05 9.077830783077572e-06)
(-1.000055068386841 2.452064328517512e-05 8.003173396273982e-06)
(-1.000048495789286 2.064150043523678e-05 6.857682074431298e-06)
(-1.000043123337281 1.678109470115725e-05 5.661894211909218e-06)
(-1.000038902019889 1.296782465010084e-05 4.431662101978752e-06)
(-1.000035784366014 9.210573928386527e-06 3.178861803374142e-06)
(-1.000033730194678 5.503487654601206e-06 1.912216413121595e-06)
(-1.000032625987057 1.83048926633012e-06 6.381763706624541e-07)
(-1.000096080891941 2.282178481660663e-05 1.053688187589571e-05)
(-1.000084887607019 2.103685915999536e-05 9.963401726550425e-06)
(-1.000074789366312 1.901441993590323e-05 9.229807680075623e-06)
(-1.000065855132027 1.68416259385127e-05 8.367698814584347e-06)
(-1.000058111871354 1.458671774434708e-05 7.405137523772602e-06)
(-1.000051556618238 1.229950983960844e-05 6.366138425612827e-06)
(-1.000046167388545 1.001311918180637e-05 5.27060065522644e-06)
(-1.000041912494571 7.746382186035742e-06 4.134568611158681e-06)
(-1.000038758096084 5.506563088675437e-06 2.970721219961807e-06)
(-1.000036674008274 3.292102215835151e-06 1.7890106451659e-06)
(-1.00003555178901 1.095274985957185e-06 5.973924673505466e-07)
(-1.000097126961632 5.026269099595009e-06 1.002356376686531e-05)
(-1.000086129628808 4.639211692580917e-06 9.503559518560581e-06)
(-1.000076164345425 4.198254573761685e-06 8.825715132973668e-06)
(-1.000067311640463 3.722558950869271e-06 8.019377116754327e-06)
(-1.000059610502939 3.227248949855232e-06 7.1110740860805e-06)
(-1.000053069387849 2.723471227650263e-06 6.123919098764227e-06)
(-1.000047676464935 2.218735875469924e-06 5.07743230926388e-06)
(-1.000043408575982 1.717420301527978e-06 3.987689041686036e-06)
(-1.000040238645985 1.221348268076812e-06 2.867705259969564e-06)
(-1.00003814148278 7.303870344089651e-07 1.727986739949495e-06)
(-1.000037011271836 2.430319305246585e-07 5.771846798266762e-07)
(-0.9999932715764869 0.0002180645889899857 7.263531664642094e-05)
(-0.9999797364428239 0.0001872126567989962 6.25954283960895e-05)
(-0.9999708725886157 0.0001587354753334047 5.327202854852634e-05)
(-0.9999653905030514 0.0001328699847034099 4.475364603136941e-05)
(-0.9999622630839877 0.0001095691849504198 3.703385046452654e-05)
(-0.9999607005289802 8.861662714065864e-05 3.004913941328685e-05)
(-0.9999601125018615 6.970246494586454e-05 2.370433499974831e-05)
(-0.9999600692940933 5.247105445738152e-05 1.788857275035538e-05)
(-0.9999602676156911 3.654869046093567e-05 1.248465880488274e-05)
(-0.9999605032067773 2.155807770448671e-05 7.373980274509304e-06)
(-0.9999606642343549 7.124305717406956e-06 2.438566551676398e-06)
(-1.000021014717466 0.0001879705359211232 5.830152129944454e-05)
(-1.000006209483137 0.0001636329029075514 5.100745173785495e-05)
(-0.9999955190067334 0.00014045209545599 4.399980235643733e-05)
(-0.9999880012793515 0.0001188245982208791 3.740596879028945e-05)
(-0.9999828589191765 9.888424432014068e-05 3.127391939476766e-05)
(-0.9999794457681556 8.05893605452243e-05 2.55982779582124e-05)
(-0.9999772560048459 6.378655226513268e-05 2.033956336146819e-05)
(-0.9999759060552295 4.82548556499652e-05 1.543757483772661e-05)
(-0.9999751153641621 3.373476634072058e-05 1.082022393529709e-05)
(-0.999974689283638 1.994630598498012e-05 6.409051516751022e-06)
(-0.9999744915403851 6.59956466958485e-06 2.122466986285785e-06)
(-1.000042333550744 0.0001598676919605251 4.684117308998547e-05)
(-1.000027254883289 0.0001409030500763023 4.155460435401603e-05)
(-1.000015680893303 0.0001222830249865137 3.629840485464366e-05)
(-1.000006958354188 0.0001044578657611872 3.120485392060011e-05)
(-1.000000498321664 8.765529439158645e-05 2.634468334674306e-05)
(-0.9999957982210351 7.194177977909432e-05 2.174378107461047e-05)
(-0.9999924470067564 5.727169403524342e-05 1.739670245188669e-05)
(-0.9999901210800176 4.352439581312143e-05 1.327692266188465e-05)
(-0.9999885761653564 3.053091606031188e-05 9.344251066245643e-06)
(-0.9999876384084484 1.809245236286672e-05 5.549998355282838e-06)
(-0.9999871609010172 5.992863709364232e-06 1.840495298700554e-06)
(-1.000058545943782 0.000134123102222494 3.776659295263768e-05)
(-1.00004379415011 0.0001195042677282208 3.393399648256469e-05)
(-1.000031964191049 0.0001047285566468933 2.998795412045453e-05)
(-1.000022629009947 9.023579377309695e-05 2.604947863760595e-05)
(-1.000015375005159 7.628804194692616e-05 2.219426939684227e-05)
(-1.000009829368512 6.300982982110358e-05 1.846270059415036e-05)
(-1.000005673388812 5.042364498142323e-05 1.48687399229689e-05)
(-1.000002646833205 3.847898188180648e-05 1.140731361164203e-05)
(-1.000000547307612 2.707493917680767e-05 8.060085065972882e-06)
(-0.9999992273359889 1.607722269156291e-05 4.799846283684612e-06)
(-0.9999985389027126 5.330762444050186e-06 1.593818278729172e-06)
(-1.000070756440168 0.0001107858792677164 3.065063735389182e-05)
(-1.000056649428865 9.964015167951393e-05 2.786293754404933e-05)
(-1.000044949367258 8.806309378850405e-05 2.488759564677568e-05)
(-1.000035398868887 7.644928896000096e-05 2.182842001322684e-05)
(-1.000027724285615 6.505735435169412e-05 1.875708623401557e-05)
(-1.000021662618001 5.403463646058704e-05 1.571865160276193e-05)
(-1.000016977854696 4.344146643975315e-05 1.273710540418563e-05)
(-1.000013469785823 3.327271819164591e-05 9.820389395790947e-06)
(-1.000010977924547 2.347584147394102e-05 6.964666573346438e-06)
(-1.000009382585181 1.39654146723567e-05 4.157828519640667e-06)
(-1.000008540574366 4.63474240844365e-06 1.382349207406285e-06)
(-1.000079854749608 8.970588374190859e-05 2.513595575093607e-05)
(-1.00006651693559 8.132199271382334e-05 2.30932304061988e-05)
(-1.000055155053768 7.239212546816798e-05 2.082991419055833e-05)
(-1.000045634749383 6.324974245486269e-05 1.843207748316095e-05)
(-1.000037789657658 5.412792989356579e-05 1.596366336012759e-05)
(-1.000031445256424 4.517347228782938e-05 1.346918631322877e-05)
(-1.00002643530708 3.646261337064702e-05 1.097696181592536e-05)
(-1.00002261245817 2.801634789995066e-05 8.502366594040757e-06)
(-1.000019854611131 1.981414481888596e-05 6.050862357555849e-06)
(-1.000018068435054 1.180573796188963e-05 3.620679356216052e-06)
(-1.000017118663974 3.9210897890274e-06 1.205161614721925e-06)
(-1.000086535556788 7.061629443461128e-05 2.09339694162358e-05)
(-1.000073963187138 6.443418028134766e-05 1.941664774324052e-05)
(-1.000063021617517 5.770035929253407e-05 1.766868647813055e-05)
(-1.000053663064462 5.068241052907922e-05 1.576045761520688e-05)
(-1.000045800555783 4.357626142792452e-05 1.374744657091531e-05)
(-1.000039327934524 3.651349238031908e-05 1.167126476466845e-05)
(-1.000034134979084 2.957108097056947e-05 9.561357240617163e-06)
(-1.000030118254374 2.278180606929421e-05 7.437014626109695e-06)
(-1.000027188534484 1.614425056473128e-05 5.309442849790663e-06)
(-1.000025275640211 9.631896971506972e-06 3.183757664538818e-06)
(-1.000024253245919 3.201202568192613e-06 1.060853025827307e-06)
(-1.000091325777142 5.318756128125397e-05 1.781911245794088e-05)
(-1.000079432870732 4.878126844531922e-05 1.666539259833892e-05)
(-1.00006890682352 4.388949635258926e-05 1.528232162151273e-05)
(-1.000059758847248 3.8714937858897e-05 1.37276351170124e-05)
(-1.000051958575807 3.341115133959076e-05 1.204920669961188e-05)
(-1.000045450436881 2.80858855765676e-05 1.028509886908412e-05)
(-1.000040166993392 2.280679019206475e-05 8.464315477943796e-06)
(-1.000036039288576 1.76081836777975e-05 6.607970464053436e-06)
(-1.000033004520229 1.249800497510342e-05 4.730668658573575e-06)
(-1.000031011483051 7.464460023420929e-06 2.841967404214749e-06)
(-1.000029942333758 2.482169435158484e-06 9.478461437338847e-07)