/*--------------------------------*- C++ -*----------------------------------*\
  =========                 |
  \\      /  F ield         | OpenFOAM: The Open Source CFD Toolbox
   \\    /   O peration     | Website:  https://openfoam.org
    \\  /    A nd           | Version:  7
     \\/     M anipulation  |
\*---------------------------------------------------------------------------*/
FoamFile
{
    version     2.0;
    format      ascii;
    class       volScalarField;
    location    "0";
    object      mag(grad(Phi));
}
// * * * * * * * * * * * * * * * * * * * * * * * * * * * * * * * * * * * * * //

dimensions      [0 1 -1 0 0 0 0];

internalField   nonuniform List<scalar> 
12684
(
0.9999727767313396
0.9999606676284508
0.9999534850946351
0.9999497100772506
0.9999481773634988
0.9999480211357334
0.9999486142733555
0.9999495132418316
0.999950412980768
0.9999511125444543
0.9999515234375227
1.000006544215204
0.9999922266304746
0.9999823470024841
0.9999757786761647
0.9999715996816186
0.9999690843394899
0.9999676789058689
0.9999669727697655
0.9999666713342324
0.9999665734241747
0.9999665539041219
1.00003213666566
1.000017016702053
1.00000571729844
0.9999974471943353
0.9999915160316569
0.9999873501558534
0.9999844907390808
0.999982583313403
0.9999813644688376
0.9999806490680582
0.99998029351193
1.000051358077797
1.000036287784295
1.000024416127735
1.000015217897259
1.000008202012899
1.000002937321229
0.9999990628540173
0.9999962888316255
0.9999943929408552
0.9999932149055126
0.9999926053151811
1.000065674984704
1.000051120708164
1.000039202554681
1.000029595887248
1.000021970387143
1.000016017681385
1.000011466891046
1.000008091976444
1.000005714043099
1.000004200958313
1.000003405546437
1.000076239305554
1.000062408527546
1.000050737844981
1.000041048186938
1.000033133029928
1.000026783832441
1.000021806827116
1.000018033274006
1.000015325159701
1.000013577983481
1.00001265126093
1.000083931769678
1.000070863579985
1.000059572528779
1.000049981854948
1.000041976766792
1.000035426196535
1.000030198767009
1.000026173892033
1.000023249104491
1.000021344643719
1.000020328529922
1.00008940887485
1.000077035995248
1.000066146930255
1.000056734500985
1.000048749297393
1.000042117677327
1.000036756110662
1.000032582062137
1.000029521891921
1.000027516340994
1.000026441898197
1.000093145123806
1.000081335154696
1.000070798126217
1.000061572090388
1.000053651872816
1.000047003950175
1.000041579134078
1.000037322837841
1.000034183013298
1.000032116003295
1.000031005498742
1.000095467204785
1.00008404946939
1.000073768876425
1.000064690418252
1.00005683610562
1.000050197673175
1.000044747985945
1.000040450705414
1.000037268076891
1.000035166886305
1.000034035987461
1.00009657922056
1.000085362166837
1.000075215867212
1.000066217843018
1.000058403005608
1.00005177525859
1.000046318222252
1.000042004547503
1.000038803579336
1.000036687324958
1.000035547319377
0.9999764976427751
0.9999640978567947
0.9999565883034093
0.9999524893746834
0.9999506589055875
0.9999502431129977
0.9999506201184699
0.9999513478006786
0.9999521206284667
0.9999527365170239
0.9999531024409395
1.000009156213607
0.9999947290212025
0.9999846872602423
0.9999779366665297
0.9999735767184618
0.9999708950855584
0.9999693457952264
0.9999685224044415
0.9999681323101456
0.9999679751332535
0.9999679234950345
1.000033967306109
1.000018840031772
1.000007479928609
0.9999991202110535
0.9999930882389829
0.9999888225733571
0.9999858724448146
0.9999838884788484
0.9999826103431496
0.9999818546634497
0.9999814770683182
1.000052642023115
1.000037618462044
1.000025745985288
1.000016516879102
1.000009453702281
1.000004135444272
1.000000208389315
0.9999973877623171
0.9999954545791412
0.9999942506754673
0.9999936267574662
1.000066578423079
1.000052096544531
1.000040211127318
1.000030609553113
1.000022971517884
1.000016996584413
1.00001241991238
1.000009019893757
1.000006620764798
1.000005092493406
1.00000428851534
1.000076879284567
1.000063130683476
1.000051510206415
1.000041846783588
1.000033941002086
1.000027590289648
1.000022605670347
1.000018822099895
1.000016104297132
1.000014349668607
1.000013418584153
1.000084390764089
1.000071406277047
1.000060173502261
1.000050620868013
1.000042638513108
1.000036099748286
1.000030876888864
1.000026852324283
1.000023925873072
1.000022019421712
1.000021001937457
1.000089745458558
1.000077454107003
1.000066626257821
1.000057258029493
1.000049303389133
1.000042691873468
1.00003734276565
1.000033175891895
1.000030119489294
1.000028115689048
1.000027041939666
1.000093401700214
1.000081670032981
1.000071194683046
1.000062015784996
1.000054130497047
1.000047507632311
1.000042100171405
1.000037855419404
1.000034722878638
1.000032660068117
1.000031551616625
1.000095675639067
1.000084333418687
1.000074114085735
1.000065083999383
1.000057266865775
1.00005065622572
1.00004522669555
1.000040943515223
1.000037770256821
1.000035674731991
1.000034546704642
1.000096765061861
1.00008562196161
1.000075536513844
1.000066587276274
1.000058810554956
1.00005221180458
1.000046776192249
1.000042477791431
1.000039287160833
1.000037177256298
1.000036040505402
0.9999835624665205
0.9999706481004133
0.9999625427220856
0.9999578446916024
0.9999554581094781
0.9999545541351882
0.9999545225181898
0.9999549250901331
0.9999554563388598
0.9999559126338625
0.9999561926847722
1.000014134273249
0.9999995231899894
0.9999891905124517
0.9999821049483908
0.9999774081109692
0.9999744142898846
0.9999725933434374
0.9999715475946259
0.9999709888628207
0.9999707187248389
0.9999706057950201
1.000037468288054
1.000022343935788
1.000010880772788
1.000002359217679
0.9999961410962067
0.9999916889654271
0.9999885680677633
0.9999864392857883
0.999985048583707
0.9999842162600872
0.9999837966722793
1.000055105268704
1.000040182952903
1.000028318315005
1.000019037260319
1.000011888748629
1.000006471550423
1.000002446203499
0.9999995378473392
0.9999975341468891
0.9999962811892115
0.9999956300572108
1.000068316705809
1.000053982215174
1.000042166642767
1.000032580423275
1.000024922590712
1.00001890812639
1.000014283991834
1.000010837289191
1.000008398440523
1.00000684158368
1.000006021442308
1.000078113950095
1.000064529650409
1.00005301108849
1.000043402529466
1.000035518274023
1.000029167324609
1.000024170041182
1.000020368611812
1.000017633122985
1.000015864740391
1.000014925562057
1.000085278469067
1.000072460065457
1.000061343785386
1.000051867997819
1.000043932344957
1.000037418618797
1.000032206317064
1.000028183638022
1.000025254875689
1.000023345149722
1.000022325316308
1.000090397919761
1.000078267747502
1.000067561452497
1.000058281464851
1.000050388258541
1.000043817524425
1.000038494012616
1.000034342152535
1.000031293849139
1.000029293955735
1.000028221822264
1.000093900103726
1.000082322956838
1.000071969677773
1.000062884381755
1.000055068719479
1.000048496025824
1.000043123494106
1.000038902113787
1.000035784413483
1.00003373021165
1.000032625988936
1.000096081207841
1.000084887877905
1.000074789589664
1.000065855308845
1.000058112005151
1.000051556714135
1.000046167452564
1.00004191253312
1.000038758115657
1.000036674015293
1.000035551789789
1.000097127024493
1.000086129684723
1.00007616439318
1.000067311679544
1.000059610533429
1.000053069410307
1.000047676480285
1.000043408585407
1.000040238650842
1.00003814148454
1.000037011272032
0.9999932979906914
0.9999797559266018
0.9999708866064539
0.9999654003320524
0.9999622697726963
0.999960704907081
0.9999601152121341
0.9999600708307609
0.9999602683615575
0.9999605034663507
0.9999606642627072
1.000021034083054
1.000006224171789
0.9999955298381689
0.9999880090386905
0.9999828642973446
0.9999794493431875
0.9999772582461079
0.9999759073386852
0.9999751159917335
0.9999746895031091
0.9999744915644153
1.000042347426044
1.000027265673222
1.000015689028531
1.000006964296741
1.000000502510408
0.9999958010452529
0.999992448798116
0.9999901221153527
0.9999885766750882
0.9999876385875203
0.9999871609206684
1.000058555650875
1.000043801866165
1.000031970124533
1.000022633420384
1.000015378161336
1.000009831524046
1.000005674770615
1.000002647638582
1.000000547706621
0.9999992274767469
0.9999985389181912
1.000070763046187
1.000056654780813
1.00004495355432
1.000035402029263
1.000027726577696
1.000021664201376
1.000016978879376
1.000013470387571
1.000010978224354
1.00000938269134
1.000008540586062
1.000079859088743
1.000066520508634
1.000055157890864
1.00004563691942
1.000037791249934
1.000031446367419
1.000026436032069
1.000022612886764
1.000019854825734
1.000018068511295
1.000017118672387
1.000086538269
1.000073965451356
1.000063023438159
1.000053664472936
1.000045801599676
1.000039328669222
1.000034135462001
1.000030118541525
1.000027188678894
1.000025275691665
1.000024253251605
1.000091327350217
1.0000794341993
1.000068907903365
1.000059759690845
1.000051959206518
1.000045450884161
1.000040167289277
1.000036039465426
1.000033004609516
1.000031011514947
1.000029942337288
1.000094612488557
1.000083261942292
1.000073088514714
1.000064141856212
1.000056429944859
1.000049932536277
1.000044612841152
1.000040427135818
1.000037332306912
1.00003529149322
1.000034193893407
1.000096662492781
1.000085687215524
1.000075766815694
1.000066973868816
1.000059339936946
1.000052867016273
1.000047537978517
1.000043325542146
1.000040199589396
1.0000381328242
1.000037019429914
1.000097646639931
1.000086862654547
1.000077073758152
1.000068363200384
1.000060773744086
1.00005431810332
1.000048988734767
1.000044766448752
1.000041627572716
1.000039549583339
1.000038429236177
0.999928721230537
0.9999209868298864
0.9999183245737003
0.9999188095257533
0.9999210661280729
0.9999241378599451
0.9999273744162954
0.9999303431114697
0.9999327632048228
0.9999344593799191
0.999935404024981
0.9999224224592544
0.9999223734181816
0.9999241667209489
0.9999268515344559
0.9999297762394829
0.9999325038148046
0.9999347484741926
0.999936330420849
0.9999372141424764
0.9999301502897562
0.9999321071935555
0.9999344422456437
0.9999367121302803
0.9999386228151572
0.9999399868662816
0.9999407542306287
0.9999411136000753
0.9999427540580249
0.9999442032433633
0.9999452651952523
0.9999458709094312
0.999991780520881
1.000026677497945
1.000051993054118
1.00007020244929
1.000083200217423
1.000092400281072
1.000098837438832
1.000103254803109
1.000106172980727
1.000107941545589
1.00010877490694
0.999995694764629
1.000029300533415
1.000053745288014
1.000071370482851
1.000083977628074
1.000092917349405
1.000099181958028
1.000103486375397
1.000106332794365
1.000108059130286
1.000108872955501
1.000003072265626
1.000034266437044
1.000057075447444
1.000073597803214
1.000085464355012
1.000093908632058
1.000099843808879
1.000103931999921
1.000106640742174
1.00010828592562
1.000109062170012
1.000013128971904
1.000041077899618
1.000061669944004
1.000076686873608
1.000087535758455
1.000095295185697
1.000100772630668
1.000104559066369
1.000107074992748
1.000108606223872
1.000109329612449
1.000057318415039
1.000019313039691
1.000087876881071
1.000053459089678
1.000107198353149
1.000076880887691
1.000119141262549
1.000092777858221
1.000126304714379
1.000103453150715
1.000130427814611
1.000110537416004
1.000132666672632
1.00011517061912
1.000133783649489
1.000118139380181
1.000134274445239
1.000119976276485
1.000134451721882
1.000121029031133
1.000134498250298
1.00012150646251
1.000060960726404
1.000023237159805
1.000089989683092
1.000055937781029
1.000108398106685
1.000078434912476
1.000119794417003
1.000093741840961
1.000126631613531
1.000104041307968
1.000130561256384
1.000110886784315
1.000132686595286
1.000115368994277
1.000133738033169
1.000118243297457
1.000134192040596
1.000120022619019
1.000134349928355
1.000121042631714
1.000134388166412
1.000121505259149
1.000067637766791
1.000030555131437
1.000093896741046
1.000060587462879
1.00011062413883
1.000081362382109
1.000121005472291
1.000095563214403
1.000127233464147
1.000105154580453
1.000130800406263
1.000111548275144
1.000132712288351
1.000115743820976
1.000133640245034
1.000118438283163
1.000134024862011
1.000120107739366
1.000134146162233
1.000121065169776
1.000134168755481
1.000121499472424
1.000076428522801
1.000040391873148
1.000099067961777
1.00006687701045
1.000113577255628
1.000085344332061
1.000122607442194
1.00009805117158
1.000128018418744
1.000106679107659
1.000131096062434
1.000112454185709
1.000132718723441
1.000116255070033
1.000133478888293
1.000118700820013
1.000133769071422
1.000120217791341
1.000133840557956
1.00012108813294
1.000133841854131
1.00012148295498
1.000173112134633
1.000108300616199
1.000183297221088
1.000131206138827
1.00018539066789
1.000143557514499
1.000183298335231
1.000149549109496
1.000179314450252
1.000151826753573
1.000174760249507
1.000152052655582
1.000170385321183
1.00015126612752
1.000166606827851
1.000150112766311
1.000163650642129
1.000148988875469
1.000161634250005
1.000148131497244
1.000160614660846
1.000147673171061
1.000174607805522
1.000111174182835
1.00018371516088
1.000132648259632
1.000185277761596
1.000144207346527
1.000182949324103
1.000149765474908
1.000178879378583
1.000151811414844
1.000174311160405
1.000151918107912
1.000169953237835
1.000151073984379
1.000166201503355
1.000149895633214
1.000163270969558
1.000148762881093
1.000161273715109
1.00014790355514
1.000160264197475
1.000147445309781
1.000177194923243
1.000116350336726
1.000184344658319
1.000135245296799
1.000184960525726
1.000145361990837
1.000182217852134
1.000150126729863
1.000178002792223
1.000151747424719
1.000173418236259
1.000151635396763
1.000169098850567
1.000150686141325
1.000165401982757
1.000149462857344
1.000162522841199
1.00014831484166
1.000160563593973
1.000147452752099
1.000159574005912
1.00014699510341
1.000180073099636
1.000122916649699
1.000184824709866
1.000138519211171
1.000184290434879
1.000146776833258
1.000181054194001
1.00015051188769
1.000176679298807
1.000151578726393
1.000172094863933
1.000151182297854
1.000167842566811
1.000150097788086
1.000164230526367
1.000148818412008
1.000161428363208
1.000147653018317
1.000159525338121
1.000146789320214
1.000158565075506
1.000146333539219
1.000510120992206
1.000421180738439
1.000337957284942
1.000250291886615
1.000425074420688
1.000369484063631
1.000306632797402
1.00024271830556
1.000364087694906
1.000324513380475
1.000278885820259
1.000231307772614
1.000317877733503
1.000289069521428
1.000255243147474
1.000219157870308
1.000282773264696
1.000261285039896
1.000235641411341
1.000207731627357
1.000256146344344
1.000239687184985
1.00021976318127
1.000197696533114
1.000236130966576
1.000223142168311
1.000207221779729
1.000189321193152
1.00022140975135
1.000210797889787
1.000197650919732
1.000182678909559
1.000211065682769
1.000202032710997
1.000190743853174
1.000177755878317
1.000204482713851
1.000196414557812
1.000186267962795
1.000174509225031
1.000201281580278
1.000193671202828
1.000184068503451
1.000172897791872
1.000500761250302
1.000414049039929
1.000335034092055
1.000249901709798
1.00041872659461
1.000364969201615
1.000304007144203
1.000241774548076
1.000359592191714
1.000321130890913
1.000276690516225
1.000230232685388
1.000314629359478
1.000286519356355
1.000253460983222
1.0002181303421
1.000280375072353
1.000259339629696
1.000234206431634
1.000206813963037
1.000254333638544
1.000238177927822
1.000218602790928
1.000196898705342
1.000234722844935
1.00022194476554
1.000206270529602
1.000188631200162
1.000220278854192
1.000209819658809
1.000196853365395
1.000182076562659
1.000210118884237
1.000201202736312
1.000190053577956
1.000177218764194
1.000203648349896
1.000195676275861
1.00018564544011
1.000174015001096
1.000200500537324
1.000192976726623
1.000183478741414
1.000172424775016
1.000482200163366
1.000376178365937
1.000329437652992
1.000248891570799
1.000406602146774
1.000356299840563
1.000298846488538
1.000239794709334
1.000350983510724
1.000314603698791
1.000272393555949
1.000228068597352
1.000308377057175
1.000281584205607
1.000249982298312
1.000216094163509
1.000275738176878
1.000255564527236
1.000231406478854
1.000205007020015
1.000250815488138
1.000235241451074
1.000216336709985
1.00023198125064
1.00021960937087
1.000218071200023
1.000195331467106
1.00020441042983
1.000187276613991
1.000207907645685
1.000195291632218
1.000180893841553
1.000208266718141
1.000199577640396
1.000188700224676
1.000176163657088
1.000202013677982
1.000194228870386
1.000184423771794
1.000173043718569
1.000198969118467
1.000191614281575
1.000182320775057
1.00017149492449
1.000428892231062
1.000392307228242
1.000319379432556
1.000246625950236
1.000390154550894
1.000343974614027
1.00029106053557
1.000236580072839
1.000338998344623
1.000305353446019
1.000266152925459
1.000224802881971
1.000299570956937
1.000274569968322
1.000244972239339
1.000213095864923
1.000269157084164
1.000250176461667
1.000227376638855
1.000202370118611
1.000245791886518
1.000231032375097
1.000213069943607
1.000193051431524
1.000228046653251
1.000216248593239
1.000201722771232
1.0001853071325
1.000214889463181
1.000205146556224
1.000193029797533
1.000179173454381
1.000205588261049
1.000197224167137
1.000186736137228
1.000174627652018
1.000199644010134
1.000192128392817
1.00018264805558
1.000171628674925
1.000196746291137
1.000189634932157
1.000180636251458
1.000170139641087
0.9998727899737184
0.9998724851830506
0.9998767256041972
0.9998832665142448
0.9998906356538578
0.9998978930361082
0.9999044541107329
0.9999099657171024
0.9999142216927817
0.9999171069990392
0.9999186838712318
0.9998802012652483
0.9998788153867477
0.9998820828988322
0.9998877914489736
0.9998944724173249
0.999901176156117
0.9999073038045598
0.9999124877213791
0.9999165092243832
0.9999192436175885
0.9999207405678818
0.9998941479898719
0.9998908134398418
0.9998922982911849
0.9998964648231408
0.9999018603583052
0.9999075232297121
0.9999128318205466
0.9999173939978535
0.9999209692784936
0.9999234158646477
0.9999247601982525
0.9999131389931741
0.9999073098228554
0.9999064727836106
0.9999085998457021
0.9999122732262109
0.9999165268338799
0.9999207170735592
0.9999244246953584
0.9999273836121716
0.9999294312768552
0.9999305636244958
0.9998809918492054
0.9998895118072251
0.9999053992485371
0.9999268275411878
0.9999379429978305
0.9999012125814772
0.999948841215676
0.9999107300547327
0.9999672115489202
0.9999282049598225
0.9999912625017543
0.9999515442831396
1.000165860073205
1.000095726329216
1.000107507887187
0.9999559209484975
1.00011130380471
1.000011105492455
1.000203994641018
1.000028952627302
1.000096417556259
1.000051172995834
1.000614659370693
1.000442422024227
1.000381884199891
1.000237474014339
1.000603295949851
1.000424314438308
1.000383075932191
1.000238266646181
1.000579613018536
1.00040055012034
1.000458810983028
1.000214018146221
1.000922263959704
1.000692309420504
1.000434802392807
1.000190921770469
1.00073740256337
1.000684316440796
1.000423754833582
1.000198297352494
1.000726558011783
1.000729328413173
1.000431819205501
1.000209135416763
0.9999340000598862
0.9999256702922292
0.9999345820408032
0.9999302616897472
0.9999292229635481
0.9999388470633208
0.999938613617494
0.9999395842347979
0.9999441860023608
0.999949997054856
1.000009830511775
0.9999701166432992
1.0000160800285
0.9999762853397021
1.000027288554676
0.9999876964718539
1.000041954760005
1.000002949085632
0.9999439814839767
0.9999469055355005
0.9999411939595496
0.9999576541264704
0.9999608942796858
0.9999756598884245
1.000148537885629
1.000068180992485
1.000152021274073
1.000073658179294
1.000158371150688
1.000083407605544
1.000523624236069
1.000513731317261
1.000315800544872
1.00025164561499
1.000671004994454
1.000555801882449
1.000422014266074
1.000304712757341
1.000583879606128
1.000915374906861
1.000658092018564
1.00064572625222
1.00062110356976
1.000969832336204
1.000950815498785
1.000899803732754
0.9998035372569369
0.9998146712325866
0.9998287215747876
0.9998433780385716
0.9998572978126061
0.9998697337842239
0.9998802968553686
0.9998888053939711
0.9998951910526995
0.9998994406938976
0.9999017380733344
0.9998138068326701
0.9998231112209124
0.9998356309589788
0.9998490483345093
0.9998619865693761
0.9998736590492449
0.9998836400830859
0.9998917175578685
0.9998977995017463
0.9999018557520754
0.9999040513853187
0.9998330028657807
0.9998390348922347
0.9998487602332915
0.9998598870931829
0.9998709949346959
0.9998812338968418
0.9998901161522766
0.9998973763800763
0.9999028806620827
0.9999065682593632
0.9999085696708755
0.9998589826003326
0.9998607946508784
0.9998668820466254
0.9998749857920074
0.99988364661429
0.9998919482160213
0.9998993323451842
0.9999054705364208
0.9999101775592599
0.999913354499836
0.9999150862732761
0.9997991984968378
0.9998115058757039
0.9998342553397921
0.9998648753763596
0.9999035169927474
0.9998080328531287
0.9998517891752202
0.9998218344820468
0.9998802392800015
0.9998478140879854
0.999919148578216
0.999882961092886
0.9999421623131544
0.9998541827751131
0.9999611881340251
0.9998777657160576
1.000005975814143
0.9999457303770496
1.00003851170513
1.000979978342174
1.000724470881674
1.000461132908928
1.000089561869585
1.000776148909811
1.00071410231601
1.000368679872299
1.000100200441778
1.000750050787275
1.000710188324198
1.000473654467271
1.000075166798516
1.000700498315842
1.000618969923713
1.000883128159383
1.001036393382885
1.001013956840169
1.000958158529941
1.000749516124148
1.000741643964566
1.000911423589697
1.000796717557422
1.000879329247581
1.000688232855569
1.000683810991788
1.000901970142517
1.000735552670648
1.000867825209287
1.000757505500378
1.000741281711615
1.000676327472409
1.00065871126266
1.000957143338707
1.000715698002168
0.9998330581993632
1.00091421068445
1.00089714808952
1.000810554545325
1.000789113585757
1.000781136240353
1.000967668140826
1.001191797081355
1.001094115035523
1.001008351574459
1.001002404022369
1.000717920973248
1.000534712799451
1.000526500975652
1.000820522462267
1.000726174783654
1.000638278168723
1.000637450559937
1.000366562355212
1.000147194294454
1.000304194295423
1.000467310207156
1.000391468289378
1.000315730538037
1.000317952832325
1.00095902879279
1.000763913572914
1.000923390176506
1.001163447001769
1.001052190639802
1.000988761043521
1.00096809475903
1.000529410466686
1.000708276379435
1.000517091869013
1.000809274582868
1.000634777886772
1.000712411088611
1.000629510067507
1.000351246298117
0.9998578388542282
1.000443216330644
1.000472075320905
1.000324994552589
1.000400384204505
1.000332862157483
1.000908339238463
1.000714408824176
1.000853780569918
1.001095174326696
1.000980235800008
1.000908193581378
1.000941017201799
1.000493830387527
1.000642063084698
0.9995374153017884
1.000686186716004
1.000614344707274
1.000780943878866
1.00062280814991
1.000829610115191
1.000999254331421
1.000871431672697
1.000594951543938
1.000734597607938
1.000602275679454
1.001058860501989
1.001022685533272
1.001277870317827
1.001267929656955
1.00097457846552
1.001245258714945
1.001211072370218
1.00090339241568
1.001167107501389
1.001115578131531
0.9995056741326347
0.9995846736854611
0.9996498175919224
0.9997026653658183
0.9997450684003805
0.9997786632170268
0.999804795050116
0.9998245259798151
0.9998386613165465
0.9998477774007405
0.9998526134341803
0.9996186539022442
0.9996691542327452
0.9997136863366907
0.9997516851668787
0.9997833433392973
0.9998091502340762
0.9998296651373278
0.9998454114075273
0.9998568286377842
0.9998642526374177
0.9998682107104847
0.9997187338398523
0.999746611217941
0.9997740219824434
0.9997991672850552
0.9998212169379935
0.9998398774727204
0.9998551306754974
0.9998670829180776
0.9998758797706494
0.9998816582050934
0.9998847578346728
0.9995300111450236
0.9996027361300994
0.999663289223768
0.9997128619735323
0.9997529327733771
0.9997848635714677
0.9998098110752874
0.9998287105519529
0.9998422831034903
0.9998510507115766
0.9998557065216412
0.9996375082467305
0.9996834924537228
0.9997246876644782
0.9997602257438357
0.9997900752455696
0.9998145573831473
0.9998341095108348
0.9998491687989455
0.9998601153360861
0.9998672453994373
0.9998710506625728
0.9997328596629522
0.9997577238885614
0.9997828171513945
0.999806182708126
0.9998268774711779
0.9998445166538223
0.9998590103377916
0.9998704108389397
0.999878824545786
0.9998843614634645
0.999887334811343
0.9995764879004186
0.9996366282994484
0.999688654013634
0.9997321920962529
0.9997679419111959
0.9997967663469375
0.9998194878972527
0.9998368161646138
0.9998493209007941
0.9998574254698945
0.999861737789378
0.9996723870027401
0.9997103405112617
0.9997454520258494
0.9997764595122305
0.9998029509062689
0.99982495484149
0.9998426945505792
0.9998564541393966
0.9998665068357604
0.9998730772661244
0.9998765911285702
0.999758946879203
0.9997785785932685
0.9997994688135313
0.9998195544890198
0.9998377282639926
0.9998534530979634
0.9998665148417935
0.9998768703393637
0.9998845558503285
0.9998896326407073
0.9998923650467315
0.9996350778193508
0.999681516444651
0.9997229742156222
0.9997587375827982
0.9997887952646951
0.9998134624502815
0.9998331696660103
0.9998483513174123
0.9998593876769434
0.9998665764048668
0.9998704129774214
0.9997185998451055
0.9997464235839101
0.9997737627862635
0.9997988641678909
0.99982090384109
0.9998395784126997
0.9998548575687363
0.9998668383512611
0.9998756603216574
0.9998814569723133
0.999884566899256
0.9997939756278295
0.9998068718221461
0.9998223203495202
0.9998380972411982
0.9998529126511813
0.999866057115619
0.9998771703185034
0.9998860931837057
0.9998927747862997
0.999897214757996
0.9998996129023934
0.999446044873656
0.999563988347322
0.9996937003084035
0.9994810124206331
0.9995892261069513
0.9997119536824305
0.9996361469937374
0.9996335853670292
0.9997441086187495
0.999584538175365
0.9996935735006117
0.9997873180435887
0.999058613396299
0.9993068187938813
0.9994194886619947
0.9995042332663028
0.9996227227424024
0.9998067564507273
0.9991477134463459
0.9993386985813594
0.9994452832022641
0.9995493867394778
0.9996804042695826
0.9997024797608601
0.9992200796446867
0.9994219262222426
0.9995181117739175
0.9995825798436798
0.9997662743060471
0.9997403344883224
0.999460769230563
0.9997994198652977
0.999883197561101
0.9997927205712499
0.9994451354482339
0.9993590804992207
0.9998063085485068
0.9997461157195774
0.9994670497335207
0.9994367338851966
0.9998637976556041
0.999742421302489
0.9997735236853632
0.9995949354745031
0.9999115488991854
0.9996967917734662
1.002045313781972
1.000941441629701
1.000112599698168
0.9994838300504941
1.001275711787098
1.000851977807627
1.000459378200151
0.9999817617033518
1.002018934581742
1.000954799190622
1.000165013679392
0.9995064173447785
1.001243941001506
1.000840750179624
1.000464809357535
0.9998971719090693
1.001857583342679
1.000959281241432
1.000027415255111
0.9999427895580564
1.001167552815404
1.000708006619776
1.000211794398962
1.000145128878251
1.001633340184562
1.000951191925325
1.001060580975286
1.000764739083647
1.001801564512933
1.001127699895189
1.002335338775755
1.001375149090051
1.002299328528453
1.001338126343313
1.0020852010526
1.001249755599788
0.9993262522746464
0.9992861924316142
0.9992446008327559
0.9992802051192862
0.9991251235351161
0.9992539604936493
0.9992433980789851
0.9992810426802445
0.9994109854426036
0.999724270982004
0.9997024066814902
0.9993506136072674
0.9996156161212051
0.9993815345218751
0.9996443087837146
0.9993786641769269
0.999663101677422
0.9995042755469068
0.9993430087890245
0.9995229846592721
0.9993822717430629
0.9990202849430833
0.9998887841149193
0.9997950945350371
0.9997753931367214
0.9999420958369263
0.999799654082867
0.9997021382964258
0.9997444736603721
0.9993518157831853
0.9994560860405781
0.9993017221493919
0.9993897032063849
0.9991652996573397
0.9992408113998806
0.9992997141758142
0.9993803643475262
0.9997392503360804
0.9995558686625277
0.9997918911645776
0.99940103641165
0.9996140592659332
0.9994772207661706
0.9995590268602754
0.9994976670800885
0.9996323241129512
0.9995474512337419
0.9994260123513381
0.9993331916745036
0.9993913985686841
0.9994147357648694
0.9994150094620738
0.999591309783482
0.9998135217140551
0.9997069106788401
0.9996260423954093
0.9997261516134444
0.9995096350655541
0.999655266440945
0.9999153286630224
0.999722949038643
0.9996777870436639
0.9995865958145573
0.9999805889067974
1.000125220212435
0.9999553259962272
0.999791584800965
0.9998315116175959
0.9997457091021414
0.9996786207086356
0.9998815700300315
1.00218685369514
1.0022299382519
1.001200304782021
1.001205529456009
1.000900430672954
1.00017177816816
1.000917334955977
1.000210823956846
0.9999863676442029
0.9995826780989175
1.000029161486861
0.9996292451326998
0.999359925020688
0.9993179785319846
0.9994917276137077
0.9995378217744302
1.002085622537563
1.001659195766521
1.001689445015147
1.001204522232781
1.00112967466955
1.001203308874513
1.001120398104305
1.000284957351379
1.000952306840706
1.000480289948198
1.000950122291281
1.000313542520256
1.000948916084804
1.000490347955661
0.9997245633757845
1.000346896754795
1.00002259139447
1.000144946279011
0.9997619369063149
1.000360044775958
1.000041555753581
0.9994483779165558
0.9997708721684283
0.999747860325841
0.9996331630734767
0.9999385330796704
0.9996707054464126
0.9999586849621604
1.001163751505163
1.00154646054075
1.001573558775353
1.00106534595123
1.001058927907713
1.00108981413477
1.001079857284548
1.000746095271677
1.000647349100491
1.000646804769718
1.000934083778968
1.00051231757815
1.000929069167875
1.000518977061547
1.000376631204106
1.000294893310551
1.000297815889975
1.000390763048234
1.000089355993274
1.000400219574948
1.000104281110194
0.9999675897298839
0.999845246123509
0.9998219387684254
1.000159645854634
1.0001075504076
1.000009389603718
1.000025663025209
1.002158513796762
1.002035516519752
1.001207667920873
1.0012066767901
1.000926938438933
1.000234826210401
1.000956602832708
1.000325610846253
1.000055682904927
0.9996585430029272
1.000157826415932
0.9997751612932718
0.9993866193417695
0.9994952591034819
0.9995669191369732
0.9996835943436531
1.001639492077668
1.001905344377352
1.001555225445061
1.00120166021344
1.001114062413438
1.001187639509165
1.001084494822879
1.000331117291456
1.00094635370826
1.000496462858135