/*--------------------------------*- C++ -*----------------------------------*\
  =========                 |
  \\      /  F ield         | OpenFOAM: The Open Source CFD Toolbox
   \\    /   O peration     | Website:  https://openfoam.org
    \\  /    A nd           | Version:  7
     \\/     M anipulation  |
\*---------------------------------------------------------------------------*/
FoamFile
{
    version     2.0;
    format      ascii;
    class       volScalarField;
    location    "0";
    object      p;
}
// * * * * * * * * * * * * * * * * * * * * * * * * * * * * * * * * * * * * * //

dimensions      [0 2 -2 0 0 0 0];

internalField   nonuniform List<scalar> 
12684
(
0.0001187863994099884
0.0001061145792134617
9.073633768685689e-05
7.489049591621178e-05
5.987919737322058e-05
4.636438324725537e-05
3.459485933084184e-05
2.456466400491661e-05
1.611433872622351e-05
8.988417613190851e-06
2.859917467520694e-06
7.755265065612299e-05
7.481849019192321e-05
6.783436742468256e-05
5.876056032140311e-05
4.901641438496998e-05
3.946439454000126e-05
3.056975510234258e-05
2.252399073174841e-05
1.533176212267728e-05
8.865878838794953e-06
2.895823740227409e-06
4.135124549430531e-05
4.601452934277622e-05
4.573573409406602e-05
4.239794705464257e-05
3.735445675973618e-05
3.151946956758114e-05
2.546499157500747e-05
1.950597366844888e-05
1.376657944148442e-05
8.226363463409149e-06
2.747795512629371e-06
1.068439511884499e-05
2.060754077977356e-05
2.546372518297969e-05
2.678164307200215e-05
2.574739786604967e-05
2.322945494809537e-05
1.98254923937588e-05
1.591309700011214e-05
1.16946121398652e-05
7.231867017774704e-06
2.469642774826814e-06
-1.45608790528509e-05
-1.049230590872989e-06
7.602560358198397e-06
1.256903267466334e-05
1.482982163450276e-05
1.515443288116896e-05
1.411380708210998e-05
1.210379355093473e-05
9.371129287185166e-06
6.036670172915438e-06
2.113443335442592e-06
-3.481280863777233e-05
-1.895026778643622e-05
-7.580098105006962e-06
1.589014263328146e-07
5.040618406800514e-06
7.715377528915873e-06
8.699159864496213e-06
8.377591942269926e-06
7.017006154199181e-06
4.777615385405739e-06
1.726014300452621e-06
-5.061868745791618e-05
-3.32804848968746e-05
-2.002211068324141e-05
-1.023858748549624e-05
-3.338516668225491e-06
1.211025818213651e-06
3.861048690864905e-06
4.971828564433905e-06
4.813118186513228e-06
3.569321738700294e-06
1.347040996713478e-06
-6.252565522609014e-05
-4.430445364007851e-05
-2.977814945001144e-05
-1.853820626241454e-05
-1.014176304284576e-05
-4.158255206890348e-06
-1.991096840103815e-07
2.065680563338539e-06
2.900422032392004e-06
2.503006492643415e-06
1.008451341086616e-06
-7.101313760613392e-05
-5.229335763608793e-05
-3.695431392567865e-05
-2.472775662926972e-05
-1.528172104766763e-05
-8.265776986977206e-06
-3.343247079243005e-06
-2.120934774021654e-07
1.383331450569203e-06
1.647559196010145e-06
7.345961304040266e-07
-7.645744199680861e-05
-5.747945595949338e-05
-4.166287775717176e-05
-2.88290073770972e-05
-1.871891796280877e-05
-1.10366644553303e-05
-5.482203366167672e-06
-1.77443237462395e-06
3.344354456155678e-07
1.051698211439792e-06
5.428434629382092e-07
-7.911491819709877e-05
-6.002930573720926e-05
-4.39929009912881e-05
-3.087047873959419e-05
-2.043924189922738e-05
-1.24307017704287e-05
-6.563666859869515e-06
-2.568143466601948e-06
-2.008809355431679e-07
7.463053534667916e-07
4.442770920859874e-07
0.0001143001491103003
0.0001027602409318031
8.830459861389539e-05
7.31861883800102e-05
5.873124780259431e-05
4.563010134268619e-05
3.415894358511816e-05
2.43352517101399e-05
1.601803852607885e-05
8.965464193301479e-06
2.860014945488788e-06
7.382999896665634e-05
7.189420044873298e-05
6.560585256884623e-05
5.711233281567477e-05
4.783591773945162e-05
3.865039571420391e-05
3.003550526178961e-05
2.219720102825012e-05
1.515297903005953e-05
8.786321678265214e-06
2.875351552093034e-06
3.836176324041878e-05
4.35581827326654e-05
4.378023033916278e-05
4.088602882358886e-05
3.621953564037244e-05
3.069514593380202e-05
2.489017312717093e-05
1.912708747561403e-05
1.353807516366591e-05
8.11038963635899e-06
2.713673642047831e-06
8.329914084699776e-06
1.859238801622597e-05
2.379565087548755e-05
2.5441494726552e-05
2.470158843387285e-05
2.243851565248694e-05
1.924948709767662e-05
1.551475626784691e-05
1.144097052522832e-05
7.095046819322233e-06
2.427286888418701e-06
-1.639555505686902e-05
-2.679598756722971e-06
6.204242324422682e-06
1.140649485362399e-05
1.389159698701381e-05
1.442060590757852e-05
1.356081767739381e-05
1.170765977870107e-05
9.109522308945442e-06
5.890253900647477e-06
2.066836322182093e-06
-3.623787471380589e-05
-2.02620496498525e-05
-8.742719635794303e-06
-8.382339481652257e-07
4.211471052596181e-06
7.047787221332928e-06
8.181618820106333e-06
7.996396288959736e-06
6.758346505610755e-06
4.629104591898558e-06
1.677877385493103e-06
-5.173121138980601e-05
-3.433943486107204e-05
-2.098982165111385e-05
-1.109253904512004e-05
-4.067886447544139e-06
6.086892060567864e-07
3.382727571850301e-06
4.611418356939764e-06
4.563321567036267e-06
3.423151119480338e-06
1.299049836712263e-06
-6.340809475333394e-05
-4.517140198012531e-05
-3.059307655317298e-05
-1.927605862947352e-05
-1.078706707395242e-05
-4.702967281387969e-06
-6.405185052867314e-07
1.726842657888226e-06
2.66160647093248e-06
2.361226921921751e-06
9.614593647377185e-07
-7.173491738838274e-05
-5.302300920231884e-05
-3.765735444647062e-05
-2.537845793980834e-05
-1.586219660983237e-05
-8.76464239276669e-06
-3.754122636858746e-06
-5.321205746592155e-07
1.154867150785684e-06
1.510460851389809e-06
6.888430687209573e-07
-7.707782060122751e-05
-5.812097292313341e-05
-4.229288532374501e-05
-2.942184438374769e-05
-1.925556469921383e-05
-1.150390123714759e-05
-5.871503598811755e-06
-2.080758802906642e-06
1.138212515826872e-07
9.183502700457551e-07
4.981395843213922e-07
-7.968630785382808e-05
-6.062780826586124e-05
-4.458690863046145e-05
-3.143450576092991e-05
-2.095383699994416e-05
-1.288184183119821e-05
-6.94184088548612e-06
-2.867290451857453e-06
-4.172973078994983e-07
6.150149243917507e-07
4.001626924273306e-07
0.0001055136926366974
9.615176771858572e-05
8.348481031915352e-05
6.978349819774711e-05
5.641820705121947e-05
4.41324882774767e-05
3.325409183000586e-05
2.384489400342612e-05
1.57992496502176e-05
8.901774906928958e-06
2.853776234257267e-06
6.659511632780477e-05
6.617506836054815e-05
6.12224464819415e-05
5.385136685635586e-05
4.548551607983261e-05
3.701794094846844e-05
2.895464710302142e-05
2.152848102216734e-05
1.478122687622034e-05
8.616897697296403e-06
2.830551926719288e-06
3.256382942636321e-05
3.876813868567796e-05
3.994804307579088e-05
3.790909829701345e-05
3.397426165163602e-05
2.905621769730851e-05
2.374110807111881e-05
1.836501800415751e-05
1.307513217912967e-05
7.873403413688584e-06
2.643417758604645e-06
3.76365801728934e-06
1.466628993706831e-05
2.053230215815976e-05
2.280952683013232e-05
2.26400099154059e-05
2.087358607426346e-05
1.810553082471712e-05
1.47205420367353e-05
1.093315620586804e-05
6.819928542705545e-06
2.341827906398692e-06
-1.995638439618937e-05
-5.856133880117752e-06
3.470343006085177e-06
9.126293020913293e-06
1.204582386271685e-05
1.297279347550072e-05
1.246674656775619e-05
1.092177391459168e-05
8.589119426670474e-06
5.598235873621925e-06
1.973705765242028e-06
-3.900666116326223e-05
-2.281917832670502e-05
-1.101576596538587e-05
-2.79295731031475e-06
2.582053229227578e-06
5.732845013214832e-06
7.160029784788352e-06
7.242415681797359e-06
6.245760607385203e-06
4.334292036458671e-06
1.582205844399045e-06
-5.389532460055038e-05
-3.640527475963104e-05
-2.288243065282909e-05
-1.276642725215644e-05
-5.50049275473137e-06
-5.766077983301504e-07
2.439864638170101e-06
3.899871082050374e-06
4.069459559120082e-06
3.13380894993487e-06
1.20397501692576e-06
-6.512671738567784e-05
-4.686414341908102e-05
-3.21877023255638e-05
-2.072262496679611e-05
-1.205434908242199e-05
-5.774342311155303e-06
-1.50990920387715e-06
1.058648362568455e-06
2.190145161011139e-06
2.081073837050609e-06
8.685495647798355e-07
-7.314223108148135e-05
-5.444888682023458e-05
-3.903382330885569e-05
-2.665453567875275e-05
-1.700219843683945e-05
-9.745627630355252e-06
-4.5630061004207e-06
-1.162789106424157e-06
7.042449563068379e-07
1.23985345634538e-06
5.984937735384173e-07
-7.828852786868199e-05
-5.937549429593179e-05
-4.352696344772086e-05
-3.058477660160787e-05
-2.030959437217472e-05
-1.242262340889433e-05
-6.637734335228077e-06
-2.68419964425196e-06
-3.210948612564897e-07
6.553112015119384e-07
4.099247175607225e-07
-8.080199248854587e-05
-6.179868109133988e-05
-4.57507977856454e-05
-3.254111566693462e-05
-2.196463115188938e-05
-1.376890104179436e-05
-7.686102663455195e-06
-3.456490096350066e-06
-8.438391024344719e-07
3.561089600520254e-07
3.131393256541635e-07
9.293183780351456e-05
8.656399033131087e-05
7.640561117657822e-05
6.472042294635898e-05
5.292491614738142e-05
4.182848568012784e-05
3.182620164933538e-05
2.303972558795801e-05
1.541222383139525e-05
8.765873920052616e-06
2.829738847385488e-06
5.628112851608493e-05
5.793340948830138e-05
5.484272367155263e-05
4.905859317454126e-05
4.19954416007052e-05
3.456623183827934e-05
2.730945204716678e-05
2.049323447536371e-05
1.419238443349154e-05
8.339675376321079e-06
2.754649721519779e-06
2.430638238277303e-05
3.188543683501514e-05
3.439686881990302e-05
3.356332637842424e-05
3.067129554562547e-05
2.662604707670223e-05
2.202273765429646e-05
1.721448986246687e-05
1.236848219107184e-05
7.50702266719369e-06
2.533602702451297e-06
-2.743851335810702e-06
9.02974298103599e-06
1.581569041843402e-05
1.898148799418822e-05
1.962342049967881e-05
1.85700759694468e-05
1.641155866193142e-05
1.353717351353754e-05
1.017160088417388e-05
6.404570394437313e-06
2.212137188880308e-06
-2.503824478650906e-05
-1.041789861916623e-05
-4.77950130367485e-07
5.816072905538048e-06
9.353184208485366e-06
1.085087937635826e-05
1.085607116305769e-05
9.759726375034685e-06
7.816319192119106e-06
5.162806473283399e-06
1.834427324432525e-06
-4.296523985343393e-05
-2.649485351683433e-05
-1.429878600466702e-05
-5.628524289765303e-06
2.089008514236811e-07
3.810569272641166e-06
5.661387786996346e-06
6.132724497337999e-06
5.489042507564079e-06
3.897865813593641e-06
1.440310463441442e-06
-5.699545261705894e-05
-3.937857955102759e-05
-2.561763133161558e-05
-1.519443328946535e-05
-7.585433458760714e-06
-2.306863804682149e-06
1.059684639199145e-06
2.855657439183636e-06
3.343051117546496e-06
2.707382118766682e-06
1.06367294202931e-06
-6.759355506348785e-05
-4.930396385522397e-05
-3.449428422180189e-05
-2.282158144669128e-05
-1.389828941878137e-05
-7.337133725587822e-06
-2.780925790765762e-06
7.98072199626669e-08
1.498277821046856e-06
1.669339441093517e-06
7.318721104134065e-07
-7.516596802778551e-05
-5.650694934901635e-05
-4.102673042742565e-05
-2.850704307384686e-05
-1.866107062077405e-05
-1.117610537288422e-05
-5.744728378916644e-06
-2.085671128095117e-06
4.389202530552849e-08
8.42833532074584e-07
4.658406998405977e-07
-8.003214123532492e-05
-6.118830654331059e-05
-4.531514948049914e-05
-3.227383837813937e-05
-2.184363746110476e-05
-1.376217471224713e-05
-7.756745052942811e-06
-3.566715536653185e-06
-9.579173993960295e-07
2.697796600064504e-07
2.805509893590064e-07
-8.241012959054228e-05
-6.349173110864307e-05
-4.743806680846478e-05
-3.414884153511989e-05
-2.343594179265854e-05
-1.506226872449308e-05
-8.772873714871787e-06
-4.3179538734879e-06
-1.468171302968608e-06
-2.31917609699297e-08
1.855788071723637e-07
0.0001635214239225707
0.0001382205660015259
0.0001128746551093882
8.945579928753297e-05
6.887816613654354e-05
5.140735944531666e-05
3.694584284650508e-05
2.521200977053747e-05
1.5842128777709e-05
8.439869879662295e-06
2.58997854222444e-06
0.0001103952285125384
8.783763224237112e-05
6.788498996321616e-05
5.085273284874893e-05
3.668655207246121e-05
2.513856772311273e-05
1.586924954505096e-05
8.498134254980206e-06
2.618973468607817e-06
6.583314971538484e-05
4.96751858788677e-05
3.610391890550437e-05
2.49365968383976e-05
1.588060547119272e-05
8.586712454107787e-06
2.667061639965276e-06
3.508912025576819e-05
2.451014939917293e-05
1.580036115281795e-05
8.655704594556653e-06
2.716478871443097e-06
0.0001252636019172243
7.298335108790098e-05
2.930151185979595e-05
-6.13716243740244e-06
-3.422903138355809e-05
-5.603438538945731e-05
-7.257683010937819e-05
-8.474583571089177e-05
-9.325681642160162e-05
-9.86407214902006e-05
-0.0001012464315570435
0.0001194310714625895
6.839823683699106e-05
2.579491987905099e-05
-8.77983056135996e-06
-3.620601968314425e-05
-5.751155990000339e-05
-7.36872788776289e-05
-8.559468686355378e-05
-9.392742728858879e-05
-9.92008045196369e-05
-0.0001017536847166281
0.0001081118611691286
5.956003694014373e-05
1.903842483933302e-05
-1.387805713349614e-05
-4.002618427151559e-05
-6.037063634642428e-05
-7.583998863674666e-05
-8.724274885067094e-05
-9.523120864288081e-05
-0.0001002908920789589
-0.0001027415710256666
9.216819319384923e-05
4.71204709467924e-05
9.512605387754136e-06
-2.108364855422466e-05
-4.543976321222198e-05
-6.443299607412182e-05
-7.890657510017825e-05
-8.959619786986706e-05
-9.709715274125769e-05
-0.0001018537801819271
-0.0001041593813504325
9.804211387384806e-05
0.0001204562100395198
2.597824771105849e-05
5.721047110685923e-05
-2.769491802111809e-05
7.155600010603216e-06
-6.706962300355005e-05
-3.15758738828907e-05
-9.557957643293501e-05
-6.101769114326036e-05
-0.0001159626666357279
-8.303507582429694e-05
-0.0001303200130026216
-9.919890261043406e-05
-0.0001402130187854427
-0.0001107586837761893
-0.0001467630586893308
-0.0001186591684879739
-0.0001507366305377366
-0.0001235714436483992
-0.0001526096394455506
-0.0001259235787364418
8.911916588534306e-05
0.0001130887386683938
1.994227262584431e-05
5.179471473036963e-05
-3.179919300765075e-05
3.236822957600414e-06
-6.986032434400273e-05
-3.438914675801907e-05
-9.747361080907585e-05
-6.302942742009081e-05
-0.0001172459245245307
-8.447347986143117e-05
-0.0001311900245583454
-0.000100233040556248
-0.0001408074742647191
-0.0001115136852167363
-0.0001471796725748408
-0.0001192288216039001
-0.0001510473083505284
-0.0001240283095846751
-0.0001528709261663808
-0.0001263271548062275
7.267305209146105e-05
9.906700926461649e-05
8.619586076409978e-06
4.147983384635424e-05
-3.957089769599262e-05
-4.252904528121469e-06
-7.517355083841338e-05
-3.978324731655003e-05
-0.0001010923477138949
-6.689687313028211e-05
-0.0001197037218666403
-8.72448198616185e-05
-0.0001328592582162766
-0.0001022292551845031
-0.0001419493810211095
-0.0001129734788401729
-0.000147980519971639
-0.0001203318049298542
-0.000151644686196647
-0.0001249138941786296
-0.0001533733522311863
-0.0001271099434228518
5.074565692955396e-05
7.977619270773068e-05
-6.781750500862316e-06
2.718967942315002e-05
-5.025946250383374e-05
-1.468971357911808e-05
-8.253161024782868e-05
-4.733528302176228e-05
-0.0001061280588777677
-7.233279524850157e-05
-0.0001231361556916612
-9.11532876197048e-05
-0.0001351965674042198
-0.0001050529256676136
-0.0001435511883561873
-0.0001150438061355572
-0.000149105039373543
-0.0001218996527744915
-0.0001524837779587743
-0.0001261749727835367
-0.0001540790494173986
-0.0001282257884682347
-3.461686155942339e-05
4.911697616855412e-05
-0.000102683407969491
-2.600729165519154e-05
-0.0001462306541970428
-7.83069565936642e-05
-0.0001734324665299579
-0.0001142769851390101
-0.0001899654985036932
-0.0001387131885754952
-0.000199669081415282
-0.0001551007574959798
-0.0002051037295286958
-0.0001659253680952633
-0.0002079585150709571
-0.0001729275671831961
-0.0002093312975331589
-0.0001772986343613344
-0.0002099144228316209
-0.000179822672102979
-0.0002101127371738413
-0.0001809733342513956
-4.336093396832294e-05
3.937599579634619e-05
-0.0001079824351176336
-3.212279963440104e-05
-0.0001493772798715203
-8.220571555334167e-05
-0.0001752620925398279
-0.0001167641351818792
-0.0001909917510642315
-0.0001402894878168267
-0.0002002057599615745
-0.0001560873079880561
-0.0002053430593537069
-0.0001665308892271789
-0.0002080188852854829
-0.0001732893023427606
-0.0002092864205744059
-0.000177508510816397
-0.0002098114715171638
-0.0001799445635455265
-0.0002099840634803769
-0.0001810549298857672
-5.97070142766258e-05
2.174299544931845e-05
-0.0001178393028570894
-4.347350791105665e-05
-0.0001552417099988353
-8.952520567614774e-05
-0.0001786761729023377
-0.0001214610039944924
-0.0001929035372491992
-0.0001432757290451796
-0.0002011982512435704
-0.0001579589460870292
-0.00020577549240078
-0.0001676793508065316
-0.0002081135040250007
-0.0001739736509871592
-0.0002091820668050722
-0.0001779030977000132
-0.0002095972204768334
-0.0001801709954802273
-0.000209721111132976
-0.0001812042742826083
-8.103618502599413e-05
-1.091357528118297e-06
-0.0001308871412720539
-5.86506577374072e-05
-0.0001630609016487098
-9.945065540972463e-05
-0.0001832375041551304
-0.0001278774800945702
-0.0001954481788287754
-0.0001473721658901508
-0.0002025006263527108
-0.000160530776089814
-0.0002063174395992032
-0.0001692559245915082
-0.0002081952105080042
-0.0001749085168303024
-0.0002089920553483648
-0.0001784358952125551
-0.0002092569117617398
-0.000180469866119304
-0.0002093141458484562
-0.0001813957381110454
-0.0006958974679557113
-0.0004995021804018654
-0.0003162364831931602
-0.000156605137073205
-0.0005995390467384703
-0.0004655587030731322
-0.0003292789905243322
-0.0002049428821292917
-0.0005245503773129062
-0.0004294607271863698
-0.0003277821372829109
-0.0002307249488929631
-0.0004658772038785251
-0.0003963736124676326
-0.0003194106042045322
-0.0002430525038816809
-0.0004200987971333269
-0.0003678916834430952
-0.0003084942161096614
-0.0002476281141790584
-0.0003846415679232106
-0.0003443000598435104
-0.0002973820982487145
-0.0002479865128487262
-0.0003575560754339301
-0.0003253963163668724
-0.0002873113281248402
-0.0002463012870406883
-0.0003373906630315244
-0.0003108294532472972
-0.0002789095876153333
-0.0002438996280698417
-0.0003230939912598979
-0.0003002472678961563
-0.0002724783139212499
-0.0002415834069068225
-0.0003139397027149375
-0.0002933601804937959
-0.0002681507347606391
-0.0002398258522256197
-0.0003094722462263445
-0.0002899675546698076
-0.000265978823650448
-0.0002388889224093567
-0.0006874267246462499
-0.0004951369118982907
-0.0003190726335029364
-0.0001633728760843562
-0.0005930009123028419
-0.0004623479504281978
-0.0003300017846015205
-0.000208516640878413
-0.0005196563036630177
-0.0004268557314053586
-0.0003275940568605277
-0.0002325130864586792
-0.0004622044062408752
-0.0003942130637876319
-0.0003188270001174707
-0.0002438459807784345
-0.0004173052680801837
-0.0003660999373240586
-0.0003077648993772786
-0.0002478712978744311
-0.0003824777547897702
-0.0003428119193439285
-0.0002966276462943966
-0.0002479300887490442
-0.0003558409394377559
-0.0003241490497864246
-0.0002865843594594661
-0.0002460860742440418
-0.0003359903658380457
-0.0003097649549046999
-0.0002782269271318586
-0.0002436035867609118
-0.0003219065150728948
-0.0002993132960542774
-0.0002718383459901211
-0.0002412485405280283
-0.0003128838074133887
-0.0002925099027114965
-0.0002675426611919547
-0.0002394738908239389
-0.0003084792027133547
-0.0002891580955444583
-0.0002653875381015307
-0.0002385307638983844
-0.0006723509627822457
-0.0004835415077531941
-0.0003242301467144679
-0.0001759443125164792
-0.0005802888837024928
-0.0004559024521586859
-0.0003311886186902773
-0.000215090003371517
-0.0005101363249813112
-0.0004217645364496876
-0.0003271013665681771
-0.0002357739898269333
-0.0004550603099756814
-0.0003899812060993128
-0.0003176082298681568
-0.0002452625201366151
-0.0004118618313330074
-0.0003625835999560706
-0.0003062888516387751
-0.0002482672222384759
-0.0003782524171619219
-0.0003398886883494225
-0.0002951192286833445
-0.0003524851382177163
-0.0003216974510123612
-0.000333245886779994
-0.0002477710463416257
-0.000285139612548973
-0.0002456339076004549
-0.0003076714007549573
-0.0002768745699410666
-0.00024300317741798
-0.0003195759001463662
-0.0002974754622082007
-0.0002705727342671237
-0.0002405777072532472
-0.0003108093495960408
-0.0002908360390206284
-0.0002663411759057546
-0.0002387725638667609
-0.0003065271817223867
-0.0002875642032580959
-0.0002642196512837029
-0.0002378185952673129
-0.0006351409159959411
-0.0004838147811481778
-0.0003303754278526085
-0.0001919330107282366
-0.0005604879727570881
-0.0004488951115042643
-0.000332586575476631
-0.0002235604113203322
-0.0004963966873683029
-0.0004147104039536792
-0.0003261418478869702
-0.0002399366102616793
-0.0004448258146993801
-0.0003838796331614488
-0.0003156706246846353
-0.0002469969980946874
-0.0004040423035163264
-0.0003574749546431247
-0.000304039310395433
-0.0002486548632399154
-0.0003721607509219621
-0.0003356334125482221
-0.0002928619160715469
-0.0002474279431204781
-0.0003476312838664919
-0.0003181250280611525
-0.000282997475509647
-0.0002449072955777162
-0.0003292651380600604
-0.0003046178342666903
-0.000274879271544506
-0.00024208500132234
-0.0003161877336787735
-0.0002947924789068633
-0.0002687103233062333
-0.00023957047757729
-0.0003077886053190278
-0.0002883906723133076
-0.0002645754876368332
-0.0002377280711060764
-0.0003036822413442777
-0.000285234728790574
-0.0002625042915344629
-0.0002367613989873154
0.0002081742846829813
0.0001681294321184591
0.0001318688279428191
0.0001006674554348093
7.472855317104539e-05
5.370838175536889e-05
3.703860526122159e-05
2.409951289428184e-05
1.430139065987904e-05
7.112308284125465e-06
2.053699881347347e-06
0.0002029684864572944
0.000164578120675969
0.0001296109254685338
9.935060563256538e-05
7.405898586595193e-05
5.346211991252426e-05
3.705117093780378e-05
2.425003693787998e-05
1.4497688045649e-05
7.278554308910957e-06
2.120511756473282e-06
0.0001917718509188207
0.0001571476050664175
0.0001249037595285238
9.656100339996942e-05
7.257868500166183e-05
5.284358962452033e-05
3.696870297272437e-05
2.446413249780001e-05
1.482543092099395e-05
7.569978501380635e-06
2.239805916380787e-06
0.000175103721497123
0.0001459159690441878
0.000117631106046919
9.210171984973671e-05
7.006849666879265e-05
5.164237342693043e-05
3.660550617634864e-05
2.458891956667771e-05
1.516922442739556e-05
7.912932312583829e-06
2.385779531233977e-06
0.0002490712834761877
0.0002418301998628335
0.0002254606657958041
0.0002015417221096764
0.0003135878310358743
0.0002858853207619642
0.0002931319487806208
0.0002751732639982798
0.0002586278617400113
0.0002514289790331466
0.0002168104158283373
0.0002185221432191766
-5.566271681087175e-06
7.856015775973054e-05
0.0002209705321113982
0.0003077565607937096
0.0002039687153970776
0.0002752560251235498
0.0001613014908416328
0.0002274470836858486
0.000105817725182039
0.0001854681184525275
-0.0008514178407028513
-0.0005819403901217944
-0.0002764804229460692
-7.12910300244732e-05
-0.0008437159816105851
-0.0005760167075482998
-0.0002848925058324141
-8.358078971883076e-05
-0.0008257077867915672
-0.0005538953452563948
-0.0003041736999597136
-0.0001071173541017305
-0.001196054909769984
-0.0006950422366087541
-0.0002413601503179827
0.0001683674246764832
-0.0008106168514190958
-0.0006864379129246548
-0.000250120114506376
0.0001543057706575654
-0.0008043056100223774
-0.0006513228371730978
-0.0002741181717789882
0.0001181348056498494
0.0001584162160587402
0.0001345940584307589
0.0001273216635152261
0.0001054021206697695
8.454771916972808e-05
7.953712326833889e-05
6.262804586051948e-05
4.776401592430482e-05
0.0001852865755536338
0.0001782846449735625
0.0001930243794988038
0.0001977853247967405
0.0001796270560297036
0.0001881706039556332
0.0001557441933728183
0.0001695198730559451
0.0001250943721611161
0.0001439955202474098
0.0001481769840693708
0.0001166222330854666
9.794026865427848e-05
0.000133338595682781
0.0001642740574565018
0.0001443772279943187
6.895604413552487e-05
0.0001560331763179703
5.526883818778307e-05
0.0001396155495240122
2.845061877190813e-05
0.0001116527035473626
-0.0007703195653475799
-0.0005221345659703777
-0.000312980343192039
-0.0001361702588537076
-0.0008345211616010557
-0.0006400024411735414
-0.0003021082216750373
-4.11401881645481e-05
-0.000868918897237393
-0.001179827349113275
-0.0009532465856543428
-0.0009418240008499817
-0.0009175302833979308
-0.001309285173842715
-0.001292079867858199
-0.001246824149563291
0.0002483256502549541
0.0001926283001363848
0.0001454385566143009
0.0001069841570597076
7.64416792216218e-05
5.266814437616165e-05
3.453410569158841e-05
2.105296486915191e-05
1.141517389525795e-05
4.979794340182339e-06
1.246226843270578e-06
0.0002440641642361259
0.0001896949152586798
0.0001437773928025613
0.0001062484855124492
7.630295974842649e-05
5.28801856786971e-05
3.492439725637174e-05
2.150003984400952e-05
1.182788691396396e-05
5.280977051003734e-06
1.359717409108013e-06
0.0002328449321054073
0.0001828982866888956
0.0001400071939650677
0.0001044686217499778
7.577684720541002e-05
5.309935611230208e-05
3.553985193088097e-05
2.226637750641451e-05
1.256096369480982e-05
5.826134893845028e-06
1.566970389884444e-06
0.0002152805494416285
0.0001721106553417101
0.0001337621409098767
0.000101225426902966
7.446534731749871e-05
5.297815463351337e-05
3.609305089652099e-05
2.312610979065686e-05
1.344953393185156e-05
6.512431996090007e-06
1.832393962875003e-06
0.0003099857589176162
0.0003055297369641023
0.0002879394696104557
0.0002603011716773677
0.0004612868834456339
0.000373167519912183
0.0004311738562823409
0.0003700355082898621
0.0003845669456457004
0.000342079910595302
0.0003222811813565667
0.0003000175473549215
0.0005082233029943214
0.0005471705022594271
0.000505311490825733
0.0004651292775240718
0.0004397989072045825
0.0004030236957314846
0.0003323198068709937
-0.001254555208523391
-0.0006998723642093264
-0.0002403366369327842
0.0004230223950434513
-0.0008325555986840953
-0.0006993276680620121
-0.0002209758068304883
0.0004048770610853395
-0.0008305228740290266
-0.0007185346143939819
-0.0001427598219019603
0.0003438623270386322
-0.000822347792794068
-0.0007043384093622946
-0.0012363639317856
-0.001385066194109922
-0.001365181781325724
-0.001313001868114008
-0.0008184887492155334
-0.0008143815030003741
-0.001188263108977524
-0.001012372697632729
-0.001012815958046851
-0.0008300226240487974
-0.0008353420466168771
-0.001182733316119917
-0.0008118151391935048
-0.001154377187026138
-0.00101110181717563
-0.0009907979049824888
-0.0008253138670811211
-0.0008049271543156775
-0.00129792025865076
-0.001087421289392122
-0.0009961185989639126
-0.001260701461273775
-0.00115821846554812
-0.001154123228424839
-0.0008357815446552455
-0.0008339026504232962
-0.001245582716241366
-0.001448717900598533
-0.001246939622417004
-0.001051050301652813
-0.001050640880407803
-0.0006999974484251138
-0.0003422235013853374
-0.0003525361221170752
-0.0006706797864752835
-0.000500485276433336
-0.000332080861813097
-0.0003385677852011768
-0.000219880175824499
0.000106613398847789
4.662825256843461e-05
-4.443043515630425e-05
6.643039698962657e-05
0.0001852001339101157
0.0001723166669809702
-0.001239412367259787
-0.000833625703110816
-0.001209042459270106
-0.001430552652532294
-0.001228796373322836
-0.001049450018832412
-0.001046741827972247
-0.0003551109733108518
-0.0007141709811431809
-0.000415158202517767
-0.0006825895060392778
-0.0003533353838424691
-0.0005305903493318672
-0.0003762013811157498
1.737546929405986e-05
-0.0002007604343437049
-1.636956622150951e-05
-7.424760335694417e-05
0.0001461545206905505
9.319263069653979e-06
0.0001094806623713948
-0.001195945533205379
-0.0008345374723279481
-0.001145828681038916
-0.001382638911665359
-0.001191119428667042
-0.001032421854371709
-0.00104119436701043
-0.0003777374351883746
-0.0007516103501052048
-0.0002944770547110355
-0.0005720497039974311
-0.0004334010211056229
-0.0007084429880309532
-0.0004042330536415623
-0.001132393069507297
-0.001307547106824226
-0.001019897303637144
-0.0004489479311841925
-0.0007300872793876658
-0.000463652810613508
-0.001446121761024214
-0.001372837170216629
-0.001643306756634083
-0.001635188292577056
-0.001328815364848419
-0.001616383649336974
-0.001587137706794981
-0.001254193217917108
-0.001548169757406636
-0.00150074915267508
0.000296602022005596
0.0002012979313299446
0.0001329418457429618
8.460147912385619e-05
5.049148964704162e-05
2.668519219559597e-05
1.056855275216187e-05
4.229433305757002e-07
-4.829733550306831e-06
-5.779053143333761e-06
-2.612279384515183e-06
0.0003000345883102795
0.0002126812700193378
0.0001476258227498019
9.959254623295815e-05
6.442971529252801e-05
3.900585163198008e-05
2.104771215520362e-05
8.950551072564203e-06
1.623896848535393e-06
-1.619902371435341e-06
-1.142365578102138e-06
0.0002795023855093392
0.0002084833282111585
0.0001513629049278119
0.0001069853484864551
7.316516230848806e-05
4.780785040945458e-05
2.918523053061007e-05
1.596053505993321e-05
7.143886893230882e-06
2.034865917265923e-06
1.680045676124689e-07
0.000296568754047707
0.0002033163072918131
0.0001359271636685651
8.776605511804792e-05
5.344927167411805e-05
2.92813607621355e-05
1.275391249699064e-05
2.184112492316259e-06
-3.506812857299378e-06
-4.930470110444697e-06
-2.312997589223096e-06
0.0002977342372887779
0.0002123422328145444
0.0001485084188634512
0.0001010729299376186
6.610555361193912e-05
4.065039748453357e-05
2.253823779252224e-05
1.021561282418019e-05
2.609778236264756e-06
-9.712571221447967e-07
-9.104500322655687e-07
0.0002774535912771455
0.000206786387796334
0.0001507545512684004
0.0001071732894194366
7.380385808175956e-05
4.864991057273066e-05
3.006995316894588e-05
1.678147436095196e-05
7.821915302107382e-06
2.498304575436689e-06
3.370526892006841e-07
0.0002879510657651125
0.0002052519265570117
0.0001406181393319383
9.309855180002669e-05
5.858956305148397e-05
3.388964809974247e-05
1.66962543910337e-05
5.400987244825095e-06
-1.067804628180448e-06
-3.355632069686499e-06
-1.755585380882158e-06
0.0002891804016689866
0.0002099694467989488
0.0001492922546996171
0.0001033091774521495
6.889296638006748e-05
4.350510129564408e-05
2.519254383748237e-05
1.250738071711926e-05
4.417172480989721e-06
2.275429150189978e-07
-4.799829751039172e-07