/*--------------------------------*- C++ -*----------------------------------*\
  =========                 |
  \\      /  F ield         | OpenFOAM: The Open Source CFD Toolbox
   \\    /   O peration     | Website:  https://openfoam.org
    \\  /    A nd           | Version:  7
     \\/     M anipulation  |
\*---------------------------------------------------------------------------*/
FoamFile
{
    version     2.0;
    format      ascii;
    class       surfaceScalarField;
    location    "0";
    object      phi;
}
// * * * * * * * * * * * * * * * * * * * * * * * * * * * * * * * * * * * * * //

dimensions      [0 3 -1 0 0 0 0];

internalField   nonuniform List<scalar> 
36825
(
1.841205858512357
-0.0004248227742657884
-4.216985414500306e-05
0.000494592483344993
-1.841233458367299
1.841188897969012
-0.0003643331738714328
-3.600524359827981e-05
0.0004172989630203994
1.841179432910955
-0.0003085849021756629
-3.039226550707247e-05
0.0003484422263688829
1.84117501449586
-0.0002580347134463683
-2.535099002161237e-05
0.0002878041187816989
1.841173801943114
-0.0002125777878908291
-2.085042429572351e-05
0.0002346407642382538
1.841174448776181
-0.000171775849345579
-1.683160163558541e-05
0.0001879606167151902
1.841175993000037
-0.0001350085475329313
-1.322227502700171e-05
0.0001466865969254102
1.841177763979885
-0.0001015677692594931
-9.945521785813913e-06
0.0001097423090450564
1.841179309464363
-7.071217638767597e-05
-6.924269412199881e-06
7.609095896743411e-05
1.84118034206464
-4.169529041848893e-05
-4.083227700090452e-06
4.474591576995168e-05
-1.377672279114658e-05
-1.349244555526319e-06
1.476488981366242e-05
1.841266348112757
-0.0003603007116954498
-3.352018122626532e-05
-1.841297349992104
1.841244646240687
-0.0003135321060412366
-2.90991938446186e-05
1.841229983099703
-0.0002689934929911431
-2.492826764464291e-05
1.841220471421408
-0.0002274586841078052
-2.106435187241416e-05
1.84121460388169
-0.0001891907882409782
-1.751946160174114e-05
1.841211216078019
-0.0001541110880540974
-1.427696030231162e-05
1.841209433778292
-0.0001219231790865682
-1.130307207044449e-05
1.841208619572751
-9.219906012483007e-05
-8.554507312561902e-06
1.841208326350325
-6.443575800307855e-05
-5.98319937315044e-06
1.841208260632262
-3.809054946661601e-05
-3.539025523879101e-06
-1.260148414281689e-05
-1.1711939471366e-06
1.84131311671841
-0.000301875395056328
-2.669124475320632e-05
-1.841344850789
1.841289184853736
-0.0002660744797062585
-2.352575976059023e-05
1.841271517908579
-0.0002308956473004997
-2.043090019907594e-05
1.841258739317276
-0.0001972059844777314
-1.747410870298668e-05
1.841249683581868
-0.0001654479440347245
-1.468711016627822e-05
1.841243403986979
-0.0001357549506808131
-1.207654455623931e-05
1.84123915789725
-0.0001080448711825338
-9.632220849999704e-06
1.841236382874872
-8.20909107273271e-05
-7.333129934261983e-06
1.841234671558859
-5.757283815153281e-05
-5.151606636256172e-06
1.841233749697583
-3.411260597949829e-05
-3.056084331953303e-06
-1.129849159812011e-05
-1.012850658010933e-06
1.841348917633777
-0.0002495965541145487
-2.134472761840994e-05
-1.841379851745728
1.841324363686159
-0.0002224447307930469
-1.907579975579665e-05
1.841305207571429
-0.000194963594523756
-1.677593757243249e-05
1.841290497357706
-0.0001679857458680392
-1.45100254440158e-05
1.841279376575221
-0.0001420108574494281
-1.231630540208298e-05
1.841271114066469
-0.0001172795934021309
-1.021285064086638e-05
1.841265111857732
-9.383957186169851e-05
-8.203093259507773e-06
1.841260900947466
-7.159978565418612e-05
-6.280217792787285e-06
1.841258131791043
-5.037320163675794e-05
-4.43048289939916e-06
1.841256563811991
-2.990897933439838e-05
-2.635649754445602e-06
-9.916487854015186e-06
-8.747306268641346e-07
1.841376069457073
-0.0002030361859163957
-1.719383884461978e-05
-1.841405435985351
1.841351844822405
-0.0001826591593862686
-1.556093516694752e-05
1.841332185420059
-0.0001614607612348423
-1.384343070855964e-05
1.841316472246135
-0.0001401743055549076
-1.209826691881411e-05
1.841304107839271
-0.0001192830814584767
-1.036337057844824e-05
1.841294554088021
-9.906453709795926e-05
-8.661307221657659e-06
1.841287351643913
-7.963436500894953e-05
-7.002765496366481e-06
1.841282127531457
-6.098609072768824e-05
-5.389585473913722e-06
1.841278596013355
-4.302444019899099e-05
-3.81724618074733e-06
1.841276556303437
-2.559242835695853e-05
-2.276843217519019e-06
-8.49305241308023e-06
-7.566466197362547e-07
1.841396446483603
-0.0001615056660880119
-1.400473284465181e-05
-1.84142397226946
1.841373043220566
-0.0001464358502561417
-1.282004476976755e-05
1.841353471875756
-0.0001303640528160681
-1.152536337985047e-05
1.841337363470229
-0.0001138975081567022
-1.016839258229896e-05
1.84132432638364
-9.746229449473099e-05
-8.783701838765978e-06
1.841313984260109
-8.132782955282459e-05
-7.394586259624465e-06
1.841305999918208
-6.563490041490102e-05
-6.01512549534059e-06
1.841300089181993
-5.042318914997623e-05
-4.652168420271337e-06
1.841296028025189
-3.56561762864143e-05
-3.307109962411928e-06
1.841293655679396
-2.12426635340461e-05
-1.977421210774764e-06
-7.055041504914793e-06
-6.579509347131312e-07
1.841411516299456
-0.0001241922519476863
-1.159249016424654e-05
-1.841437237222472
1.841389115018011
-0.0001133138714595517
-1.072069604544173e-05
1.841369938420382
-0.0001014581436590852
-9.729311475581707e-06
1.841353798683912
-8.910027812024698e-05
-8.657494283870768e-06
1.84134046084854
-7.658890997539554e-05
-7.535550754056642e-06
1.841329677189259
-6.415845955910449e-05
-6.385713018675605e-06
1.841321211629434
-5.194608620161568e-05
-5.223257253516615e-06
1.841314856194846
-4.001001682720681e-05
-4.057740816376162e-06
1.841310441537984
-2.834729631477719e-05
-2.894226013649641e-06
1.841307843301386
-1.691000433057255e-05
-1.734424790588905e-06
-5.619696896074386e-06
-5.777457268587928e-07
1.841422394679949
-9.023855512889676e-05
-9.815035162019853e-06
-1.841446533340608
1.841400970745788
-8.273203366961844e-05
-9.157902521650863e-06
1.841382296285945
-7.440405173093415e-05
-8.379632052379475e-06
1.841366310052022
-6.560168043769832e-05
-7.512364620154699e-06
1.841352891299001
-5.658779204771476e-05
-6.582366542628711e-06
1.841341889562605
-4.75465401788e-05
-5.610185368710151e-06
1.841333147698839
-3.859305025642e-05
-4.611175108415466e-06
1.841326518915392
-2.978501028660929e-05
-3.596226260649709e-06
1.841321878829934
-2.113462706756406e-05
-2.572586737680652e-06
1.841319133608815
-1.262008115388014e-05
-1.544704301359445e-06
-4.196129566126171e-06
-5.15054804473015e-07
1.841429901201415
-5.878390662797848e-05
-8.566915898456182e-06
-1.841452788933189
1.841409298727736
-5.407778753702295e-05
-8.051771387274567e-06
1.841391098657246
-4.878667944897516e-05
-7.41730190485566e-06
1.841375323940412
-4.313654321157716e-05
-6.690421314603747e-06
1.841361932550859
-3.730227279377028e-05
-5.894131448069288e-06
1.841350843052521
-3.140970549253552e-05
-5.047338818142473e-06
1.841341955738794
-2.554071471607603e-05
-4.16502485820536e-06
1.841335169298611
-1.973992283063814e-05
-3.258650545845519e-06
1.841330393375848
-1.402200388596242e-05
-2.336703461835924e-06
1.841327557560403
-8.378945792774309e-06
-1.405322216063343e-06
-2.786967672107274e-06
-4.689569603755302e-07
1.841434607320473
-2.898138050856339e-05
-7.773906196617618e-06
-1.841456635939569
1.841414589835843
-2.671531995090959e-05
-7.34498204124624e-06
1.841396748793452
-2.414647660038545e-05
-6.799160604176537e-06
1.841381158210856
-2.138603168883222e-05
-6.159929956339895e-06
1.841367825118173
-1.852113647160537e-05
-5.448045443356719e-06
1.8413567120433
-1.561545776350745e-05
-4.681175439147767e-06
1.841347756530714
-1.27113299646525e-05
-3.873875323634572e-06
1.841340887217509
-9.832811271150915e-06
-3.03780175046101e-06
1.841336036433975
-6.989131859713286e-06
-2.182091638047723e-06
1.841333149538543
-4.178205581073513e-06
-1.313847161732425e-06
-1.390035816805299e-06
-4.386841899302547e-07
1.841436873381028
-7.38884413793433e-06
-1.841458465916645
1.84141715867918
-7.000617299324025e-06
1.841399509238348
-6.497036055819175e-06
1.841384023106077
-5.89990037194152e-06
1.841370730796868
-5.228828895198505e-06
1.841359616171131
-4.50083429193171e-06
1.841350635049367
-3.730210910068684e-06
1.841343730896945
-2.928661676726571e-06
1.841338847360227
-2.105597688073849e-06
1.841335937708288
-1.268555454903005e-06
-4.236896036017493e-07
1.841212471315259
-0.0004155442348203648
-8.150130297156771e-05
-1.841240551019009
0.0004829553892757962
1.841194919033516
-0.0003569250261094904
-6.975850382910057e-05
0.0004082305701077432
1.841184840707749
-0.0003027236493733166
-5.901101476877349e-05
0.0003414207250285705
1.841179842271083
-0.0002534364192002131
-4.931502279189216e-05
0.0002823988878281647
1.841178112950587
-0.0002090046506127932
-4.062510640009064e-05
0.0002305086515088962
1.841178320515565
-0.0001690354751624281
-3.2838782837885e-05
0.0001848350885451134
1.841179507986604
-0.0001329498106879304
-2.582511677471431e-05
0.0001443651778626315
1.841181004889639
-0.0001000756223552557
-1.944178443464002e-05
0.000108074978007038
1.841182357061398
-6.970268671444694e-05
-1.354433081911076e-05
7.49705726347302e-05
1.841183274819518
-4.111152252224387e-05
-7.990399315538509e-06
4.410093308812758e-05
-1.358572717691242e-05
-2.640861132811408e-06
1.455434076311379e-05
1.841271090523964
-0.0003529752836744055
-6.495112175868337e-05
-1.841302228531877
1.841249120410241
-0.000307553460554999
-5.650064341765214e-05
1.841234127937916
-0.0002641691485756326
-4.84902958987282e-05
1.841224274039671
-0.0002236074156072509
-4.103945821290365e-05
1.841218082126067
-0.0001861525132937913
-3.417968767377696e-05
1.841214406180063
-0.0001517506931021794
-2.788579972014952e-05
1.841212382174924
-0.000120130850162561
-2.209803167816447e-05
1.841211377825273
-9.088888362725158e-05
-1.673690085769935e-05
1.841210948225589
-6.354370507999363e-05
-1.171258541012789e-05
1.841210800614857
-3.757249647944091e-05
-6.930443701724148e-06
-1.243162865016689e-05
-2.293954181698667e-06
1.841316512347085
-0.0002961401643020167
-5.184066903692503e-05
-1.841348198039693
1.841292504722217
-0.0002613009894467666
-4.577060422761224e-05
1.841274689670884
-0.0002269749539745226
-3.981004320389592e-05
1.841261728941983
-0.0001940264002662334
-3.409439604046534e-05
1.841252483946253
-0.0001629047720883357
-2.868985758787559e-05
1.841246026022995
-0.0001337557586129633
-2.361355874849147e-05
1.841241624141457
-0.0001065118401843873
-1.884935290578459e-05
1.841238723003817
-8.096144757498869e-05
-1.435943223049919e-05
1.841236919434189
-5.679928577513538e-05
-1.009245981838563e-05
1.841235941482684
-3.366160409208564e-05
-5.989027697609055e-06
-1.115032966962691e-05
-1.985200689592106e-06
1.841351351521958
-0.0002451438787727137
-4.154553087628212e-05
-1.841382147002143
1.841326830757707
-0.0002186743212000408
-3.718170198558133e-05
1.841307638224619
-0.0001918178824396257
-3.274047586094057e-05
1.84129285057015
-0.0001653986426532922
-2.835012953428779e-05
1.841281632959733
-0.0001399159362993513
-2.40875328441822e-05
1.841273269941421
-0.0001156152464436354
-1.999034748121372e-05
1.841267174534092
-9.255197536184312e-05
-1.606755447226973e-05
1.841262885165637
-7.064440072970141e-05
-1.230790010442462e-05
1.84126005711589
-4.971538011273274e-05
-8.686342376184496e-06
1.841258452757126
-2.952408609108962e-05
-5.168811498812431e-06
-9.789818664909152e-06
-1.715677605793251e-06
1.841377821079508
-0.0001996152188941006
-3.353166187921963e-05
-1.841407011914281
1.841353687196452
-0.0001797189950693897
-3.03823767734198e-05
1.841334057464378
-0.0001589741609504322
-2.705742006345881e-05
1.84131833327652
-0.0001381041214747896
-2.366860133882988e-05
1.841305933649572
-0.0001175885643518661
-2.029111774156942e-05
1.84129633321249
-9.770572035037268e-05
-1.697039935185288e-05
1.841289082108705
-7.857491954645814e-05
-1.372872127253556e-05
1.841283814186234
-6.019506044374623e-05
-1.057100727779205e-05
1.841280248409892
-4.247721499521594e-05
-7.489638537080631e-06
1.841278187024533
-2.527123714777359e-05
-4.468309324486886e-06
-8.387181149038803e-06
-1.485090001359792e-06
1.841397717303334
-0.0001589180435150775
-2.736065854193456e-05
-1.841425058551209
1.841374432030575
-0.0001441838703118193
-2.506989536956733e-05
1.841354927503868
-0.0001284374206085614
-2.25575771079915e-05
1.841338848833642
-0.0001122767613856242
-1.991708360447105e-05
1.841325816493589
-9.612339773415895e-05
-1.721653066774354e-05
1.8413154640133
-8.024560710783216e-05
-1.450222236843522e-05
1.841307461967824
-6.478546012172784e-05
-1.180254329765266e-05
1.84130153203169
-4.978554423401799e-05
-9.131752523202932e-06
1.841297454387748
-3.521327399709422e-05
-6.493410629239313e-06
1.841295071080539
-2.098200026747668e-05
-3.883353408306644e-06
-6.969005058376568e-06
-1.292239187300953e-06
1.841412451476561
-0.0001222855687157301
-2.268394577598079e-05
-1.841437992493979
1.841390178480287
-0.0001116374564718563
-2.099411244832803e-05
1.841371088163058
-0.0001000103370320759
-1.906607803057835e-05
1.841355002197314
-8.787189285744832e-05
-1.697639838686895e-05
1.841341694284175
-7.556642537842606e-05
-1.47846123123233e-05
1.841330924160301
-6.332654788668713e-05
-1.253465166102092e-05
1.841322461883673
-5.128950318652592e-05
-1.025694145117468e-05
1.841316104301925
-3.951494828011807e-05
-7.970759115982276e-06
1.841311685661483
-2.800227255101705e-05
-5.686590666797845e-06
1.841309084075745
-1.670649038752008e-05
-3.40835147662326e-06
-5.552448087732087e-06
-1.135429816583851e-06
1.841423099588813
-8.889969249501535e-05
-1.923251313711255e-05
-1.841447067985495
1.841401805599698
-8.154548228134217e-05
-1.795588648536516e-05
1.841383226607258
-7.337175625288241e-05
-1.643922070783498e-05
1.841367307664759
-6.47199784964414e-05
-1.474533785992297e-05
1.841353934161713
-5.584951945401066e-05
-1.292577188335049e-05
1.841342961204989
-4.694277238705883e-05
-1.102100750571758e-05
1.841334236438611
-3.811446306030316e-05
-9.06145288910359e-06
1.841327616977686
-2.942289143927823e-05
-7.068826346755703e-06
1.841322981443618
-2.088159411470871e-05
-5.057734843975429e-06
1.841320238118032
-1.247056542166189e-05
-3.037306271528619e-06
-4.146680220618955e-06
-1.012803673609772e-06
1.841430453799031
-5.793324187554045e-05
-1.680597671981698e-05
-1.841453181187308
1.841409979325736
-5.331961173737917e-05
-1.580316769178543e-05
1.841391878385013
-4.812359674666318e-05
-1.456452110915066e-05
1.841376178123802
-4.2567482972478e-05
-1.314265712184495e-05
1.841362840908765
-3.682375451674602e-05
-1.158268390253352e-05
1.841351789514306
-3.101692054037373e-05
-9.921799716794589e-06
1.841342928010218
-2.5228397423625e-05
-8.189590558726693e-06
1.84133615827501
-1.950301742732213e-05
-6.408793670109189e-06
1.841331392472311
-1.385615115174942e-05
-4.596347564349196e-06
1.841328562003234
-8.280820128714339e-06
-2.764601116508694e-06
-2.754493947577442e-06
-9.225995177830605e-07
1.84143506742917
-2.856832286358661e-05
-1.5262898063558e-05
-1.84145694335491
1.84141517534073
-2.634591847929737e-05
-1.442658599558204e-05
1.841397434498784
-2.382238636264926e-05
-1.335952952454784e-05
1.841381921852271
-2.110709688756485e-05
-1.21076711068941e-05
1.841368647742755
-1.828598199328194e-05
-1.071171110938673e-05
1.84135757803743
-1.542200507632609e-05
-9.20638919437099e-06
1.841348653390249
-1.255722056165724e-05
-7.620409308180957e-06
1.841341805141239
-9.715736267702696e-06
-5.976838349707986e-06
1.84133696780337
-6.9070764869732e-06
-4.293832380023825e-06
1.841334088329435
-4.129620982507022e-06
-2.585575101740013e-06
-1.373951062742405e-06
-8.633451138658664e-07
1.841437289833539
-1.451323209353088e-05
-1.841458733767205
1.841417698872833
-1.375557451292284e-05
1.841400149788232
-1.27703383652791e-05
1.841384742967197
-1.160017763242086e-05
1.841371511719652
-1.028356553926338e-05
1.841360442821976
-8.853944577798702e-06
1.8413514948745
-7.339487297061325e-06
1.841344613801043
-5.763327782259637e-06
1.841339745258847
-4.144134725986845e-06
1.841336843999335
-2.496918661727442e-06
-8.339903537179625e-07
1.841225067863828
-0.0003977907878824587
-0.0001155752949385896
-1.84125397706303
0.0004607739804840311
1.841206447908899
-0.0003427032651366347
-9.931216157930883e-05
0.0003908768799890605
1.841195241637916
-0.0002914380312924963
-8.430347064686573e-05
0.0003279367586042186
1.841189163979871
-0.0002445591873123017
-7.06647972970633e-05
0.0002719866193460796
1.841186465371658
-0.000202090623636535
-5.836334749311087e-05
0.0002225274714222938
1.841185844103785
-0.0001637223899546567
-4.727950598374751e-05
0.0001787843786017864
1.841186355413261
-0.0001289517512853607
-3.7247363050182e-05
0.0001398626850635487
1.841187331112207
-9.717408270222521e-05
-2.807968354252743e-05
0.0001048362794417896
1.841188314786399
-6.773776593813744e-05
-1.958209498083152e-05
7.279185251312368e-05
1.841189013290969
-3.997450380930481e-05
-1.156016106488066e-05
4.284575828578961e-05
-1.321359867510043e-05
-3.821966681783617e-06
1.414444770742041e-05
1.841280155386571
-0.0003389116475261069
-9.248576953220248e-05
-1.841311499876547
1.841257713142722
-0.0002960433037153331
-8.071835903855583e-05
1.841242120481922
-0.0002548578060790129
-6.947786001987311e-05
1.84123163254352
-0.0002161574190666437
-5.895328895649536e-05
1.841224833605359
-0.0001802635501552819
-4.920782499238168e-05
1.841220614742461
-0.0001471678427718425
-4.022148695154471e-05
1.841218133081838
-0.0001166459791801311
-3.192214688480315e-05
1.841216767428958
-8.833856332881467e-05
-2.42067714486538e-05
1.841216078048519
-6.180578974344213e-05
-1.695518496358518e-05
1.841215774196091
-3.656263569067108e-05
-1.003846213191543e-05
-1.210042751897955e-05
-3.323673795740945e-06
1.841323023730379
-0.0002850965275769113
-7.409742746556634e-05
-1.841354582089679
1.841298898640355
-0.0002520876389566985
-6.560117721932102e-05
1.841280820868928
-0.0002193914002300159
-5.719867738740484e-05
1.841267526412445
-0.0001878645021489792
-4.909285722492772e-05
1.841257929312748
-0.0001579678395522422
-4.138847024139821e-05
1.841251136606058
-0.0001298691250974503
-3.411957234535824e-05
1.841246440497691
-0.000103527793640471
-2.727143332637583e-05
1.841243300202542
-7.876076068889069e-05
-2.07969432617669e-05
1.841241321202568
-5.529093785614612e-05
-1.462831504830333e-05
1.841240236404261
-3.278175482617551e-05
-8.68511263276623e-06
-1.086121115814076e-05
-2.879612282091158e-06
1.841356032619018
-0.0002365473687990891
-5.958848116880481e-05
-1.841386538825542
1.841331594879101
-0.000211380657291606
-5.345094216243304e-05
1.841312347767042
-0.0001857216452916042
-4.716311851062221e-05
1.841297423075002
-0.0001603767482420332
-4.091319223616616e-05
1.841286028027191
-0.0001358435063303991
-3.481682006329145e-05
1.841277477937489
-0.0001123757357586186
-2.893364978507439e-05
1.84127120753068
-9.00430994433134e-05
-2.328184521981583e-05
1.841266770025396
-6.878122870508063e-05
-1.784993045770963e-05
1.841263830385619
-4.843167102166376e-05
-1.260597277582825e-05
1.841262156947941
-2.87726545404982e-05
-7.504476494890634e-06
-9.5424664079519e-06
-2.491496244982911e-06
1.841381199330495
-0.0001929955584274231
-4.824663547194578e-05
-1.841410036165424
1.841357253891085
-0.0001740202745828193
-4.379731862513882e-05
1.841337692664055
-0.0001541471610458026
-3.907067721367072e-05
1.841321956316969
-0.0001340798530886644
-3.422915034418097e-05
1.84130949579774
-0.0001142904422493309
-2.938366452155868e-05
1.841299810573799
-9.505809682643824e-05
-2.460281714415213e-05
1.841292469401397
-7.650870056963301e-05
-1.992195115971862e-05
1.841287119583059
-5.865116599539661e-05
-1.535125533154265e-05
1.841283489402073
-4.140855725243141e-05
-1.088257470255625e-05
1.841281387136082
-2.464375255064499e-05
-6.494947732690552e-06
-8.180309292948884e-06
-2.159065643581559e-06
1.841400174614339
-0.0001539013146314223
-3.948085696339183e-05
-1.84142714865802
1.841377127004629
-0.0001398117613365157
-3.623079761834875e-05
1.841357759972031
-0.0001246920752946733
-3.264563026736971e-05
1.841341745727801
-0.0001091222763502822
-2.886041714115575e-05
1.84132872814318
-9.35146689886696e-05
-2.497472129268119e-05
1.841318359970064
-7.813498597709581e-05
-2.10571629420734e-05
1.841310326935987
-6.312748671423124e-05
-1.715072658615265e-05
1.841304362191809
-4.854014186704878e-05
-1.327803621733392e-05
1.84130025420679
-3.434779493699283e-05
-9.446191320705657e-06
1.841297850579339
-2.0472463750645e-05
-5.651017165779558e-06
-6.800795005780575e-06
-1.880747329325708e-06
1.841414264167678
-0.000118583202843647
-3.281703403922063e-05
-1.841439449189608
1.841392246690672
-0.0001083783390760866
-3.041005653320695e-05
1.841373329770951
-9.719249646607126e-05
-2.76487372779122e-05
1.841357353335182
-8.547862511803188e-05
-2.464361494721334e-05
1.841344107826151
-7.357243966452737e-05
-2.148133469326337e-05
1.841333367469348
-6.170285563200652e-05
-1.822642813672997e-05
1.8413249142808
-5.000709772825645e-05
-1.492414542581604e-05
1.841318554538751
-3.854744131714932e-05
-1.160372137829539e-05
1.84131412953795
-2.732769633454339e-05
-8.281691889038378e-06
1.841311522248089
-1.630846868128089e-05
-4.965059097506289e-06
-5.420906523688935e-06
-1.65423344685356e-06
1.841424469031423
-8.629673697413408e-05
-2.788659606057449e-05
-1.841448101412862
1.841403432533271
-7.9236252040072e-05
-2.606147432987188e-05
1.841385043642292
-7.136075834204207e-05
-2.388206804921207e-05
1.841369259520608
-6.300077632830206e-05
-2.143906615269801e-05
1.84135597741024
-5.440878349190097e-05
-1.880731981960288e-05
1.841345063227216
-4.576364770514373e-05
-1.604603540275024e-05
1.841336373937229
-3.717921278003547e-05
-1.320005148133228e-05
1.841329774283743
-2.871487169198161e-05
-1.030174633670832e-05
1.84132514876559
-2.038666209709563e-05
-7.373254388702816e-06
1.841322409810235
-1.217803348827575e-05
-4.428788554274984e-06
-4.04991785507569e-06
-1.476958385867647e-06
1.841431529516367
-5.627797510744345e-05
-2.441337925587947e-05
-1.841453940874313
1.841411308026975
-5.184294693230039e-05
-2.297498246804535e-05
1.841393403624316
-4.683099735338564e-05
-2.118987972998774e-05
1.841377851513442
-4.145724925105449e-05
-1.913407455276948e-05
1.841364622546019
-3.588945845426229e-05
-1.687304373021458e-05
1.841353647662141
-3.024949674678182e-05
-1.446106988289841e-05
1.841344838278308
-2.461783437190945e-05
-1.194158885954709e-05
1.841338102493346
-1.903965719269614e-05
-9.348227137140733e-06
1.8413333573942
-1.353164187942822e-05
-6.706272182879964e-06
1.841330537925867
-8.088778192160357e-06
-4.034390572844546e-06
-2.690931506732497e-06
-1.34647202350758e-06
1.841435964544537
-2.776415311810416e-05
-2.220157082134917e-05
-1.841457539692463
1.84141631997656
-2.562612172596345e-05
-2.099884236213754e-05
1.841398777372419
-2.319035859919064e-05
-1.945756444380704e-05
1.841383419304266
-2.056270657272683e-05
-1.764414690188477e-05
1.841370262507715
-1.782670849185142e-05
-1.561766675493738e-05
1.841359279324527
-1.504393628997367e-05
-1.342876965231365e-05
1.841350416455522
-1.225587437496511e-05
-1.111950413152152e-05
1.841343610508613
-9.486702610773814e-06
-8.723850044134451e-06
1.841338800257923
-6.746495202788743e-06
-6.268731959435437e-06
1.841335935772574
-4.034518857285037e-06
-3.775351636336663e-06
-1.342462092490672e-06
-1.260716991675986e-06
1.841438102575918
-2.112610574300786e-05
-1.841459253854207
1.841418755739674
-2.003485934309875e-05
1.841401405024424
-1.860998211415207e-05
1.841386155302358
-1.691316322296431e-05
1.841373045279884
-1.500025343624424e-05
1.841362067386482
-1.291998999621817e-05
1.841353185627247
-1.071360535855852e-05
1.841346350716045
-8.415122141662688e-06
1.84134151223424
-6.052150644672348e-06
1.84133862782932
-3.647034190839302e-06
-1.218221840056197e-06
1.841242513393354
-0.0003730225597373471
-1.841272391459725
0.0004300089425846243
1.841222547792928
-0.0003227576172606173
0.0003666604204692787
1.841209871898485
-0.000275534538263762
0.0003090151486800331
1.841202359795288
-0.0002319962045133122
0.0002573027867709096
1.841198355053683
-0.0001922694572834719
0.0002112234142870422
1.841196605624459
-0.000156151224128397
0.0001701830218353952
1.841196189620497
-0.0001232393701728049
0.000133442722974114
1.841196446510146
-9.301959409135921e-05
0.0001002071461267701
1.841196919947647
-6.491986884029511e-05
6.967213413302918e-05
1.841197314083662
-3.834217114528393e-05
4.104630546921663e-05
-1.267907786842009e-05
1.355646065248628e-05
1.841292778335834
-0.0003191863979381537
-1.841324291734828
1.841269770871904
-0.0002798270410679715
1.841253410232262
-0.0002416858767486439
1.841242086542493
-0.0002055800937026187
1.841234473286853
-0.0001718756963970946
1.841229517478419
-0.0001406222940696789
1.841226409396568
-0.0001116571397616894
1.841224546235386
-8.468082671473479e-05
1.841223497645332
-5.930974688972412e-05
1.841222977176951
-3.511089215774907e-05
-1.162408092094553e-05
1.841332137692699
-0.0002695327216572631
-1.841363439827493
1.841307912036225
-0.0002390540322188208
1.841289516015298
-0.0002086262152629849
1.841275790939813
-0.0001790901421277762
1.841265726689191
-0.000150918403583944
1.841258482632734
-0.0001243061648001708
1.84125338570961
-9.924814619295609e-05
1.841249917315207
-7.559948802531083e-05
1.841247696500064
-5.312156304793092e-05
1.841246463988186
-3.151528162987077e-05
-1.04448775009036e-05
1.84136261638216
-0.0002243809246174066
-1.841392663918768
1.841338339853198
-0.0002010251759305587
1.841319052088467
-0.0001770408504806689
1.841303962678314
-0.0001532067492239905
1.841292338927959
-0.0001300153381962216
1.841283540651315
-0.0001077300339133897
1.841277034367813
-8.643892737132597e-05
1.841272395240203
-6.61008896978288e-05
1.8412693027815
-4.658297486656186e-05
1.841267534392298
-2.768972891752429e-05
-9.185866744910145e-06
1.841385972130844
-0.0001835924720410277
-1.841414273807544
1.84136232417862
-0.000165903636611308
1.841342886189691
-0.0001472549869618654
1.841327154089392
-0.00012832079106715
1.841314624232252
-0.0001095609508534814
1.841304831757842
-9.12546590914332e-05
1.841297372405469
-7.353599665955437e-05
1.841291913155008
-5.642721538823282e-05
1.841288196027443
-3.986774293494133e-05
1.841286038254504
-2.373846478944575e-05
-7.881756099844882e-06
1.841403660966265
-0.0001467530045901736
-1.841430089857678
1.841380972828278
-0.0001335678286176739
1.841361820385599
-0.0001193318877883754
1.841345913929599
-0.0001045988954235693
1.841332930524018
-8.976729892066094e-05
1.841322550420282
-7.509844519911907e-05
1.841314481186755
-6.073902401372249e-05
1.84130847262747
-4.674409750488289e-05
1.841304325305588
-3.309863163678641e-05
1.841301894963195
-1.973663374400479e-05
-6.557812632262204e-06
1.84141684614227
-0.0001132943018937739
-1.841441507019248
1.841395208769113
-0.0001037135972008605
1.841376553377939
-9.315197501003071e-05
1.841360745526121
-8.204109254528193e-05
1.8413475993777
-7.070401299542782e-05
1.841336909841488
-5.936393944602983e-05
1.841328476113231
-4.815765511540177e-05
1.841322118093352
-3.715080738449752e-05
1.841317687303496
-2.635321171151617e-05
1.841315073784275
-1.573320907954924e-05
-5.230742842310399e-06
1.841426426846976
-8.257100312782866e-05
-1.841449566491072
1.841405770391287
-7.592535962566086e-05
1.841387664260402
-6.847283694533251e-05
1.841372082605643
-6.052820242885561e-05
1.841358939451304
-5.23338776372348e-05
1.841348116125785
-4.406344872307596e-05
1.841339482960986
-3.582925479015484e-05
1.841332915689005
-2.769202775350264e-05
1.841328307306116
-1.967118756156339e-05
1.841325576250507
-1.175496116538707e-05
-3.90994460155357e-06
1.841433072490474
-5.390535916880503e-05
-1.841455021314797
1.841413222913971
-4.972313337603412e-05
1.841395608894928
-4.497273567374223e-05
1.841380276930435
-3.985899778388265e-05
1.841367209880211
-3.454281044651207e-05
1.841356350319716
-2.914214407626913e-05
1.841347620188016
-2.373598073028668e-05
1.841340936529204
-1.836988533004747e-05
1.841336223532509
-1.306229070084976e-05
1.84133342126707
-7.810906067273755e-06
-2.598941735731052e-06
1.841437254716269
-2.661049733522183e-05
-1.841458390036461
1.841417973311673
-2.459205320448632e-05
1.841400722632812
-2.228115357503296e-05
1.841385593117804
-1.97785774024976e-05
1.841372610546573
-1.716440669774499e-05
1.841361756483082
-1.449816628512416e-05
1.841352986283445
-1.182046509452484e-05
1.841346244123815
-9.155528930252188e-06
1.841341474917171
-6.514167542059505e-06
1.841338633231419
-3.896872208898095e-06
-1.296877369938443e-06
1.84143927316039
-1.841459996625478
1.841420284211289
1.841403225208973
1.841388207288491
1.841375276786966
1.841364434184282
1.841355651219573
1.84134888548522
1.841344092212479
1.84134123322624
1.841128564992065
0.0005675228786199001
-5.301822720100543e-05
-1.841148477158075
1.841120041232321
0.0004702817375630275
-4.445901297600693e-05
1.841118794803412
-3.693787436529705e-05
0.0003866265300157262
1.841121851141283
-3.038987357584196e-05
0.0003151376534571426
1.84112712179564
-2.470247706578498e-05
0.0002540725850668224
1.841133174756372
-1.974529258319559e-05
0.0002016529457126441
1.841139048712162
-1.538635653615247e-05
0.0001561989941492865
1.841144112629808
-1.149984702930568e-05
0.0001161782345471826
1.841147964421165
-7.96871993573427e-06
8.020788398061053e-05
1.84115036103869
-4.684495735318706e-06
4.703379122483752e-05
-1.545523337442009e-06
1.549808944245612e-05
1.841125818870584
0.0003783542536552887
-1.841128109188409
-7.158108573004235e-05
1.841127952034734
0.0003088974334307377
-5.902158461286898e-05
1.841132439387669
-4.806535037893411e-05
0.0002493841691268983
1.841137850604861
-3.847939710198245e-05
0.0001981579721519466
1.841143217786779
-3.002244656626852e-05
0.0001536340814300985
1.841147900484253
-2.246097547966489e-05
0.0001143534042555021
1.841151487421877
-1.557538501064002e-05
7.89902957860633e-05
1.841153728227193
-9.160502816725148e-06
4.633613182383794e-05
-3.022973094735111e-06
1.527087695948856e-05