/*--------------------------------*- C++ -*----------------------------------*\
  =========                 |
  \\      /  F ield         | OpenFOAM: The Open Source CFD Toolbox
   \\    /   O peration     | Website:  https://openfoam.org
    \\  /    A nd           | Version:  7
     \\/     M anipulation  |
\*---------------------------------------------------------------------------*/
FoamFile
{
    version     2.0;
    format      ascii;
    class       volScalarField;
    location    "0";
    object      Phi;
}
// * * * * * * * * * * * * * * * * * * * * * * * * * * * * * * * * * * * * * //

dimensions      [0 2 -1 0 0 0 0];

internalField   nonuniform List<scalar> 
12684
(
13.99932501753177
12.66603801654007
11.33276329732114
9.999495432109738
8.666230766440329
7.332966978826339
5.999702722815999
4.666437348574596
3.333170691899509
1.99990291608049
0.6666343925164397
13.99963264781659
12.6663018440108
11.33298675535375
9.999682284833279
8.66638470207984
7.333091368234486
5.999800487626276
4.666510897648891
3.333221897268614
1.999933109221835
0.6666443687639746
13.99989355522851
12.66652888450138
11.33318154374523
9.999846996294181
8.666521702305808
7.333202965918936
5.999888776824921
4.66657766248553
3.333268557645098
1.999960692033511
0.6666534939766333
14.00011215465252
12.66672155912462
11.33334874404155
9.999989800627763
8.666641509437696
7.333301271228057
5.999967016214399
4.666637107627777
3.333310248321005
1.99998539426543
0.6666616756429576
14.0002928969848
12.66688263979174
11.33348992457551
10.00011144547822
8.666744344886201
7.333386197830175
6.000034969007817
4.666688955748422
3.333346725467026
2.000007052491829
0.6666688565479678
14.0004399231884
12.66701491021751
11.33360684443709
10.00021295100983
8.666830722290015
7.333457934219108
6.000092635272127
4.666733118089984
3.333377881096136
2.000025584939953
0.6666750066893598
14.00055687556728
12.66712094997114
11.33370124599258
10.00029542851574
8.666901298434299
7.333516826785337
6.000140163993116
4.666769631433864
3.333403701085862
2.000040967558364
0.6666801155125327
14.00064680788766
12.66720300484357
11.33377471568283
10.00035994940679
8.666956759369112
7.3335632863595
6.000177780124505
4.666798604204667
3.333424228438359
2.000053212733913
0.6666841849482125
14.00071215304828
12.66726291424726
11.3338285944789
10.00040745407193
8.666997736735775
7.333597716612733
6.000205726816073
4.666820172660391
3.333439532823473
2.00006235141337
0.6666872235247984
14.00075472070479
12.66730207402445
11.33386392276401
10.0004386908791
8.667024748726416
7.333620461571883
6.000224221816382
4.666834467087255
3.333449686688363
2.000068418925837
0.6666892416737987
14.00077570722171
12.66732141960096
11.33388140814363
10.00045417731585
8.667038160583861
7.333631769317162
6.000233426572557
4.666841587398873
3.333454747783846
2.000071444522982
0.6666902482514556
13.99935777447205
12.66606598489893
11.33278690559881
9.999515124396638
8.666246962752062
7.332980053374041
5.999712993690347
4.666445074113837
3.333176070573067
1.999906087873432
0.6666354405903355
13.99965868581451
12.66632444784888
11.33300611927594
9.999698647320898
8.666398310947335
7.3331024583733
5.999809267691184
4.666517542667957
3.333226544932416
1.999935858286301
0.666645278530705
13.99991428860613
12.66654715897548
11.33319741417664
9.999860569932196
8.666533111043169
7.333212346806228
5.999896258996481
4.666583358756108
3.333272559339543
1.999963065956158
0.6666542807445551
14.00012873493201
12.66673637693336
11.3333617753502
10.00000107180825
8.666651076567788
7.333309204424534
5.999973388260064
4.666641986011244
3.333313689856835
1.999987441600507
0.6666623551212053
14.00030625291319
12.66689472730388
11.33350067795472
10.00012084323914
8.666752395004421
7.333392925809893
6.000040408656016
4.666693142301424
3.33334969064932
2.000008821111114
0.6666694443002457
14.0004508018648
12.66702486864514
11.33361579717472
10.00022084967192
8.666837545344121
7.333463678228081
6.000097307735684
4.666736731827953
3.333380450011896
2.000027120972501
0.6666755177762501
14.00056588044804
12.66712927765467
11.33370880358274
10.00030215353363
8.666907151942475
7.333521787115989
6.000144221344729
4.666772783428959
3.33340594927928
2.00004231483476
0.6666805642971527
14.00065443206676
12.66721011857142
11.33378122486129
10.00036578490431
8.666961872457405
7.33356764427135
6.000181362019456
4.666801397701855
3.333426226786978
2.000054412638148
0.6666845850354267
14.00071880770616
12.66726916874825
11.33383435613306
10.00041265109564
8.667002315212875
7.33360163731342
6.000208962147886
4.666822703933583
3.333441347941341
2.000063443047587
0.6666875878038658
14.00076075936407
12.66730777950157
11.33386920425484
10.00044347582469
8.667028980690283
7.333624097842094
6.000227230987393
4.666836826808261
3.333451381705975
2.000069439503543
0.6666895824374176
14.00078144677028
12.66732685758047
11.33388645494842
10.00045876027417
8.667042222263449
7.333635265500941
6.0002363241471
4.666843862341426
3.333456383382054
2.000072429918737
0.6666905773674905
13.99942108351989
12.66612017230815
11.33283274451207
9.999553431601841
8.666278519754355
7.333005562071425
5.999733054272131
4.666460176214242
3.333186591615754
1.999912294701472
0.6666374919735365
13.99970913891802
12.66636833674153
11.33304378584508
9.999730526185749
8.666424861240435
7.33312411966415
5.999826433126509
4.666530543653447
3.333235643101436
1.999941241755958
0.6666470604415461
13.99995455769726
12.66658271292698
11.33322833804948
9.999887053971973
8.666555396914692
7.333230689481323
5.999910900904541
4.666594512957923
3.333280399018151
1.999967718147313
0.6666558228200944
14.00016100690688
12.66676525914829
11.33338720768412
10.00002309378386
8.666669787419195
7.333324732640884
5.999985869306844
4.666651546612218
3.333320437283498
1.99999145665944
0.6666636878350674
14.00033229982911
12.66691832790013
11.3335216957721
10.00013922867053
8.666768156854802
7.333406108173675
6.000051072930572
4.666701353708857
3.333355508493545
2.000012292029967
0.6666705978969472
14.00047205523349
12.66704434258172
11.33363331957837
10.00023632097794
8.666850918899186
7.333474943347235
6.000106475782709
4.666743825242864
3.333385494000521
2.000030137505949
0.6666765215691938
14.00058350101306
12.6671455855813
11.33372361383978
10.00031534055737
8.666918636418107
7.333531523854321
6.000152188790327
4.666778975000769
3.333410366541673
2.000044962393501
0.666681446282824
14.00066937160822
12.66722406644753
11.33379399461309
10.00037723887212
8.66697191301235
7.333576205232537
6.000188400826618
4.666806888665171
3.333430155563151
2.00005677197427
0.6666853717668548
14.00073186234879
12.66728144442315
11.33384566964499
10.00042286012394
8.667011312476266
7.333609344425702
6.000215323704834
4.666827682192948
3.33344491831847
2.000065590550248
0.6666883044659913
14.00077261536524
12.66731898586747
11.33387958174652
10.00045288089064
8.667037301394451
7.333631249233694
6.000233150412484
4.666841469530905
3.333454717093627
2.000071447941349
0.666690253071565
14.00079272044164
12.66733754271424
11.33389637476482
10.00046777112645
8.667050210390251
7.333642143118604
6.000242025355989
4.666848339212111
3.333459602486692
2.000074369489476
0.6666912251992871
13.99951086075792
12.66619731657652
11.33289823024373
9.99960832300688
8.666323855568928
7.333042288116252
5.999761987491643
4.666481988111287
3.333201802707396
1.99992127446945
0.6666404608226589
13.99978098054256
12.66643103760971
11.3330977552542
9.999776320258423
8.666463085175923
7.333155363140618
5.999851229794178
4.666549347127698
3.333248813646898
1.999949039489935
0.6666496422238696
14.00001211552038
12.66663367098428
11.33327276916495
9.999925188602143
8.666587546887108
7.333257193077695
5.99993208496435
4.666610667726357
3.333291762084301
1.999974464618729
0.6666580596617743
14.00020729438779
12.66680677907658
11.33342384332083
10.00005487456712
8.666696832627634
7.333347207886692
6.000003954311602
4.666665412183196
3.333330229423059
1.999997286029573
0.6666656231937577
14.00036977712631
12.66695234903156
11.333552045316
10.00016581738553
8.66679098166564
7.333425219290562
6.000066548017637
4.666713278344702
3.333363961922106
2.000017337212584
0.6666722750282988
14.00050272339917
12.66707248614773
11.3336586782376
10.00025873933768
8.666870318905909
7.333491300250594
6.000119798222104
4.666754139431707
3.333392831666993
2.000034527135359
0.6666779825068433
14.00060899281629
12.66716920767879
11.33374509098392
10.00033448336541
8.666935322812019
7.333545681883329
6.000163781653285
4.666787988605772
3.33341679964163
2.000048819180482
0.6666827312677327
14.00069103351766
12.66724431062848
11.33381254586238
10.00039389243242
8.666986522269713
7.333588669563604
6.000198654438033
4.666814890914555
3.333435883001836
2.000060212193953
0.6666865190470322
14.00075082631303
12.66729929106131
11.33386212964086
10.0004377231997
8.667024419215592
7.3336205775782
6.000224599760471
4.666834943762246
3.33345012765489
2.000068724407204
0.6666893503862229
14.0007898612283
12.66733529746824
11.33389469610462
10.00046658661189
8.667049432974872
7.33364168051013
6.000241787884441
4.666848246092993
3.333459586555055
2.000074380580563
0.6666912323785108
14.00080913089878
12.66735310550676
11.33391083073307
10.00048090903002
8.667061862372826
7.333652179182258
6.000250347531577
4.666854875958783
3.33346430371086
2.000077202453546
0.6666921714966062
13.99896686435419
12.66573583453236
11.33251097708825
9.999287022230618
8.66606085416279
7.332830869414229
5.999596501487193
4.666357880005981
3.333115591549912
1.999870513865619
0.6666237006996772
11.33253966990138
9.999310628650271
8.666080042694079
7.332846207275431
5.999608453389151
4.666366812922869
3.333121781537713
1.999874152714985
0.6666249012401233
8.666117379171606
7.332876097521391
5.999631774396748
4.666384260287748
3.333133880274287
1.999881268462705
0.666627249442438
5.999665356554319
4.666409424315812
3.333151350472339
1.999891551282716
0.6666306440752898
15.33263200462534
15.33298590125916
15.33328120579986
15.33352515074425
15.33372441959488
15.33388486862491
15.33401142665941
15.33410809065156
15.33417796572404
15.33422331914378
15.33424563081653
15.33266989762374
15.33301547199277
15.33330436304867
15.33354339310597
15.33373891671319
15.33389653391912
15.33402097846092
15.3341161019873
15.33418490442801
15.33422958041417
15.33425156432585
15.33274292897933
15.33307263882863
15.33334925507255
15.33357884536675
15.33376715360407
15.33391930081342
15.3340396538745
15.33413178987271
15.33419850918881
15.33424186824598
15.33426321461193
15.33284604078049
15.33315374352296
15.3334132271196
15.33362956826
15.33380769953867
15.33395209881335
15.33406663583023
15.33415451270086
15.33421825554099
15.33425972987538
15.33428016293792
17.94934852760124
16.64930274342053
17.94979185103763
16.64970287677102
17.95014852222887
16.65003091045271
17.95043413720694
16.65029780864134
17.95066140270766
16.65051303712066
17.95084044105015
16.65068448087158
17.95097916430805
16.65081852311936
17.95108362853615
16.65092018643659
17.95115833327707
16.65099328330441
17.95120645639316
16.65104054988402
17.95123002476303
16.65106375092723
17.94939669543592
16.64934587440051
17.94982791479082
16.6497358689481
17.9501757522511
16.65005629089648
17.95045490739261
16.65031748774051
17.95067744325519
16.65052845635242
17.95085302409823
16.65069673251852
17.95098923809071
16.65082844331932
17.95109191417905
16.65092842629728
17.95116539527313
16.6510003632363
17.95121275505074
16.65104690174707
17.95123595680918
16.65106975182618
17.94948888998472
16.64942873758748
17.9498972627063
16.64979948843054
17.95022831722083
16.65010539234283
17.95049513623239
16.65035566917763
17.95070860189255
16.65055844937467
17.95087752891097
16.65072061820102
17.95100889999583
16.65084782241352
17.9511081169755
16.6509445507185
17.95117922675793
16.65101423742831
17.95122510539997
16.65105936192192
17.95124759527472
16.6510815299198
17.94961776350391
16.64954517229269
17.94999484632088
16.64988939102358
17.95030272721961
16.65017513673451
17.95055238468294
16.65041015310441
17.95075314954588
16.65060142507584
17.95091270751734
16.65075496863001
17.95103722796379
16.65087578233381
17.95113153359129
16.65096788014963
17.95119926688423
16.65103435724708
17.95124303227675
16.65107746120098
17.95126450522321
16.65109865349088
20.54962989281892
19.24945159130585
20.55013285233679
19.24993123957515
20.55052168810486
19.25030955070691
20.55082291315389
19.25060752780886
20.55105612060777
19.25084139918317
20.55123575898532
19.25102357472096
20.55137244531021
19.25116344565039
20.55147391587032
19.25126801805229
20.55154570162444
19.25134239410059
20.55159159736041
19.25139012341844
20.55161397496113
19.25141344633021
20.54968554159717
19.24950419936928
20.55017267102298
19.24996972928632
20.5505506107437
19.25033805302945
20.55084424760508
19.2506289065834
20.5510721222261
19.25085766919644
20.55124799272104
19.25103617378075
20.55138201977723
19.25117341788495
20.55148163707554
19.25127613940918
20.55155217605848
19.2513492597983
20.55159730334567
19.25139621059144
20.55161931452303
19.25141916096251
20.54979121210564
19.24960443633906
20.55024878148268
19.25004351526486
20.55060618361817
19.25039294701683
20.55088541900741
19.25067023962159
20.55110311633288
19.25088922867661
20.55127176348493
19.25106068216664
20.55140067379878
19.25119286425179
20.55149671487608
19.25129200978521
20.55156484269674
19.25136269937235
20.5516084815728
19.25140814093312
20.55162978237476
19.25143036850408
20.54993718152775
19.24974374494263
20.55035489082732
19.25014687394867
20.55068428000529
19.25047037607871
20.55094367332923
19.25072889256613
20.5511472278877
19.2509342475234
20.55130576541255
19.25109580256884
20.55142747275641
19.25122084156286
20.55151845624751
19.25131491997987
20.55158316216689
19.25138215420753
20.55162468348564
19.25142544559059
20.55164497215526
19.25144664202188
25.75138862443432
24.45077988775163
23.1502803978044
21.84990143841405
25.75172433435309
24.45120478227889
23.15076377502864
21.85040766686598
25.75196668553079
24.45151651013986
23.15112300463677
21.85079147934383
25.75214422584942
24.4517476424752
23.15139267490065
21.851084051241
25.75227551892769
24.45192022993254
23.15159619446537
21.85130758558115
25.75237293106221
24.45204930415837
23.15174975363735
21.85147793306908
25.75244483590786
24.45214520648713
23.15186467129613
21.8516064371114
25.75249694820755
24.4522150789542
23.15194887626728
21.85170119031348
25.75253314861617
24.4522638155518
23.15200786472661
21.85176788323561
25.75255599808016
24.45229466774984
23.15204532061431
21.85181037161399
25.7525670542919
24.45230962248639
23.15206350918353
21.85183104440557
25.75142757221475
24.45082881055048
23.15033504571532
21.84995794730522
25.75174997308713
24.45123754508715
23.15080114686968
21.850447249633
25.75198402464881
24.45153901786439
23.15114913561331
21.85081969155717
25.7521562614232
24.45176348371163
23.15141133963369
21.85110452444916
25.75228407814857
24.45193163965307
23.15160981112442
21.85132272540947
25.75237916718503
24.45205771952014
23.15175991351817
21.85148936502331
25.75244950353694
24.45215158251865
23.15187245202416
21.85161528618956
25.75250056007699
24.45222007302348
23.1519550314739
21.85170825793721
25.75253606866502
24.45226789943615
23.15201294269099
21.85177376181133
25.75255849953308
24.45229819894699
23.15204974160442
21.85181552137824
25.75256935832581
24.45231289247053
23.15206761887007
21.85183584779401
25.75150119640496
24.45092127141295
23.15043811491589
21.85006493306728
25.75179841880326
24.45129957450844
23.15087212263349
21.85052268432106
25.75201701173301
24.45158192762095
23.1511990885556
21.85087376725772
25.75217931326387
24.45179387701617
23.15144722048991
21.85114395921686
25.75230056197898
24.45195364365689
23.15163610903183
21.85135200769312
25.75239122984541
24.45207401632726
23.15177961042363
25.75245856437064
24.45216397212811
25.75250759190088
21.8515115528287
23.15188758459677
21.85163251166192
24.4522298045359
23.15196703440669
21.85172204978314
25.75254176687447
24.45227587527096
23.1520228661105
21.85178525631258
25.75256338914889
24.45230510659953
23.15205839447911
21.85182560537888
25.75257386613031
24.45231929469509
23.15207566905642
21.85184526077042
25.75159809479741
24.45104197358078
23.15057822547572
21.85021175356702
25.75186415302443
24.45138396924631
23.15096989051784
21.85062730682214
25.75206258145573
24.45164140538616
23.15126870284981
21.85094946272237
25.75221154276145
24.45183648716817
23.15149768391135
21.85119959141808
25.75232381269446
24.45198474858735
23.15167336713761
21.85139358807102
25.75240836219388
24.45209720487009
23.15180768556798
21.85154323386346
25.75247150570166
24.45218169644273
23.15190926355728
21.85165722334499
25.75251768189642
24.45224378872869
23.15198430306128
21.85174191450562
25.75254997384449
24.45228737800152
23.15203719205471
21.85180186559526
25.75257045068224
24.45231509488805
23.15207091725835
21.85184021054064
25.75258038576321
24.45232856509389
23.15208733502977
21.85185891098159
13.99856103657159
12.66539954254847
11.33223450578942
9.999061671641357
8.665879170361658
7.332686670174167
5.999484805740949
4.666274802552907
3.333058235998386
1.999836880650256
0.6666126182296837
13.99861252735228
12.66544189846459
11.33226911399327
9.999089740356283
8.665901711514518
7.332704507242759
5.999498591776612
4.666285040380771
3.333065296666717
1.999841018386233
0.6666139812466458
13.99871145635413
12.66552356456033
11.33233604387424
9.999144163025118
8.665945511113714
7.332739228061967
5.999525465505128
4.666305019659588
3.33307908691768
1.999849104158413
0.6666166454968397
13.99885046223235
12.66563893948336
11.3324310531998
9.99922173579578
8.666008158438334
7.332789032137216
5.99956410267101
4.666333796119834
3.333098975429416
1.99986077567653
0.6666204928932795
15.33172683927106
15.33178896235239
15.33190782735588
15.33207385568642
17.94813426317708
16.64824523908837
17.9482212862661
16.64831929618639
17.94838587690748
16.64846030888577
17.94861298046815
16.64865607909742
20.54940776192817
19.24924334859366
20.54813547998765
19.24808348433675
20.54824964157507
19.2481858940285
20.54846068629228
19.24837470348016
20.54874563227007
19.24863305193756
26.07622923104233
24.77550198966712
23.14961928565483
21.84922953822575
26.0762672225519
24.77555322738707
23.14970107907086
21.84931145885777
26.07634918397681
24.77566315757485
23.14985388969182
21.84946542009421
26.23778770037427
24.9367371288505
23.47356286348607
21.52299064263728
25.26205423703177
24.93682373667664
23.47366773685416
21.52309129906741
25.2622515863882
24.77457616459765
23.47389568771198
21.52331134143237
13.99900804815568
12.66577036965851
12.66583712353299
11.33259527306619
9.999356475774031
9.999422000299214
8.666170900682722
7.332919052134909
15.33221231333073
15.33226092830735
17.94880004638082
16.64881846957286
17.94886480635986
16.64887504959734
17.94898805316977
16.64898329517416
17.94915913168471
16.64913447766733
13.99908741960298
12.66593180385825
11.33267446065331
13.99919947497192
15.33235430530993
15.33248545436697
20.54897696906546
19.2488437549346
20.54905598746253
19.24891659524153
20.54920461404532
19.24905400487998
26.07646642158204
24.45058176165907
23.15006172659734
21.84967428786666
25.42527688676832
24.77486751367608
23.47421260603467
21.84898586846662
26.7268321725122
26.72624311337798
26.7266417866686
26.72667234548734
26.72673910250543
26.56309515447787
26.56315587319162
26.56330347018478
13.99811061904054
12.66503333963623
11.33193827690306
9.998823489053988
8.665689315711523
7.33253739100777
5.999370043654973
4.666189943303842
3.332999901686629
1.999802769868217
0.6666013940918387
13.99817445419043
12.66508479780017
11.3319796033606
9.998856521229673
8.665715520957797
7.332557919667625
5.999385781477923
4.66620155668452
3.33300787374653
1.999807427391774
0.6666029259997819
13.99829667565842
12.66518374930907
11.33205935708117
9.998920459016578
8.665766370195337
7.332597834627838
5.999416430899967
4.666224202042616
3.333023432949808
1.999816522983458
0.6666059185166019
13.99846754367869
12.66532296676633
11.33217219222926
9.999011348057033
8.66583894032601
7.332654984963853
5.999460429096929
4.666256775683491
3.333045846658921
1.999829638208076
0.6666102355785313
15.33117592878138
15.33125477668552
15.33140492656014
15.33161343610409
17.94733959111101
16.64757822151052
17.94745455433465
16.64767464472587
17.94767266594056
16.6478571090627
17.94797311250998
16.64810906399474
20.87171766087642
18.92193506521452
20.22187634733716
19.24728873537494
20.22216081939847
19.24754521946985
19.24789840788966
26.23755888614314
24.93644925774422
23.63566963523192
21.52173562217801
25.26178899636066
24.93654703516642
23.63577687817067
21.52188679137203
25.26201292522427
24.93677846402909
23.63506719573812
21.52221301675911
25.26232452858947
24.93710710611014
26.56335516526331
26.5628867803827
26.56295708744298
26.56312587841464
25.26197111109883
25.26202148684974
26.23782955002901
26.07564180043289
26.07566275624007
25.42516899082842
25.42519307700925
26.2378553787921
25.26219156426199
26.23796984185688
26.07570426038886
26.07576289568077
25.42524012811345
25.42530724837911
26.5631325650514
26.56365098816408
26.5640295947915
26.56325942670476
26.7262190019989
26.72626584665283
25.26169499263487
25.26175191210429
26.23760600975731
26.23670000534611
25.91136614453908
25.58598450025837
25.58602552182106
24.93650850737039
23.96083108603505
23.96089628745767
24.93539072294587
24.61018436984186
24.28491788891953
24.28496326046655
23.63573824944895
22.66040149525455
22.82274106592203
23.63456029902315
23.30946614483073
22.98430825134448
22.98435141834716
26.23763636119205
25.26194554235616
26.23776725219279
26.23681869073797
25.9115867483617
25.58611873490633
25.58625847618345
23.96093323954675
24.93670563292021
23.96111771773705
24.93553488195063
24.28506679049103
24.61044017734159
24.28522254432914
22.82282620614848
23.63595346826886
22.82295249371008
23.63470886309955
22.98445096478733
23.30972480668807
22.98460622991463
26.23782241081497
25.26223858892035
26.23801209874971
26.23709929607219
25.91195200867974
25.58664510788861
25.58643699936356
23.96119909819702
24.93701887414367
23.96185611100243
24.61086844318759
24.28565747339418
24.93587760140922
24.28542228754584
26.23808116215
26.23748155353712
25.58687303039352
24.12406652401397
24.93635097923379
24.28591769759639
26.56281621183932
26.56292956769222
26.56210158184949
26.56213486092306
26.56307583359868
26.5622103606991
26.5623233291694
26.56329638315745
26.5624671644063
26.56263409926087
13.99653751449039
12.66380588281428
11.33097851874636
9.998073114026493
8.665104790335732
7.332086291916259
5.999028370725124
4.665940180564379
3.33282963939561
1.999703752506952
0.6665689003717553
13.99708474267421
12.66422448309083
11.33130046856971
9.998321402026486
8.665296024532001
7.332232516295379
5.999138308181264
4.666020085954528
3.332883883087274
1.999735212051675
0.666579210218721
13.99761500977907
12.66463844003285
11.33162417590523
9.998574461853273
8.665493112992319
7.332384580603224
5.999253458110232
4.666104242753331
3.332941242699966
1.999768566026325
0.6665901550554694
13.99665133336401
12.66389205019816
11.33104417340662
9.998123358953018
8.665143255418347
7.332115566115089
5.999050302129256
4.665956079059207
3.332840412142173
1.999709992999331
0.6665709443224592
13.99718004947496
12.66429811290389
11.33135753988802
9.998365695350545
8.665330321469174
7.332258858290477
5.99915818636326
4.666034576490379
3.332893741678184
1.999740938117766
0.6665810881316659
13.99769351239825
12.66470037962861
11.3316730431668
9.998612947138996
8.665523272364199
7.332407971192631
5.999271246425287
4.666117287656824
3.332950156613582
1.999773758225203
0.6665918602908072
13.99686759651282
12.66405644857517
11.33117005887654
9.998220119849123
8.665217595582966
7.332172303894482
5.999092902407196
4.665987012511406
3.332861397754878
1.999722159138244
0.6665749306303638
13.99736130589854
12.66443892573131
11.33146719917358
9.998451136156872
8.665396690970733
7.332309964409212
5.999196829670077
4.666062789430415
3.33291295757176
1.999752107141084
0.6665847524102596
13.99784322922749
12.66481915032597
11.33176714330402
9.998687311656184
8.66558171376983
7.332453400086813
5.999305857318427
4.666142704595097
3.332967542223443
1.999783891716071
0.6665951894403213
13.99716350581787
12.66428439859574
11.33134626560671
9.998356550353668
8.665323015718123
7.332253126645099
5.999153800476268
4.666031351123087
3.33289153575563
1.999739653181308
0.6665806661968392
13.9976115875177
12.66463521446848
11.33162125445939
9.998571927940461
8.665491000229258
7.332382881882586
5.999252143019993
4.666103272429853
3.332940579852116
1.999768180931452
0.6665900288392707
13.99805135525398
12.66498551188211
11.33189981411575
9.998792732736003
8.665664935928605
7.332518328964658
5.999355468615204
4.666179218855902
3.33299255929307
1.999798488836488
0.6665999875404595
15.32915411343679
15.32987399704356
15.33055485549013
15.3293051774747
15.32999790721505
15.33065446786709
15.32959351542993
15.33023173737234
15.33084281367376
15.32997771223104
15.33055127244474
15.33110259892812
18.43063726623332
16.31999505729252
18.26981626147328
16.64592985661044
18.27154612888111
16.64680335712605
18.10611259154902
16.32009097428335
18.26993165315214
16.64609192470632
17.94654214138828
16.64693015984886
18.26910994093939
16.32041943440096
18.27032239946584
16.6463905896421
17.94682949348636
16.64716500096669
16.64606302529881
16.64679959978038
17.94722625121236
16.64748751108734
21.03047239393161
18.91943085956416
21.03367266355368
18.92137255159582
21.03058124728383
18.91956430418873
20.22123842329205
18.92150478217489
21.03313658729235
18.92000944299083
20.22157685147141
18.9218687834674
26.23229184122809
24.93008275365987
23.62944878379948
21.35529697660715
26.23634116074416
24.93495778501622
23.63411487184672
21.35865809850209
26.23246649816998
24.93056105602611
23.62987901752042
21.35541308036147
26.23647904834546
24.93512321347898
23.63428346189798
21.35885461281378
26.23346205439592
24.93265868219634
22.65665821568684
22.33166456027186
26.23680320616075
24.61052800199243
22.65859823474964
21.5218043421585
26.2346831804949
24.93301036030458
26.23724075231058
24.9360515033253
26.56024136485074
26.56259659359902
26.55800271467189
26.56177216415934
26.55816733646362
26.56189887913354
26.55910236992531
26.5621962703279
21.02987775568612
21.0296926235495
20.0554171968115
20.05556592363717
18.75657057147178
18.75639777891344
19.73066362982809
19.7308007838227
21.0303052673187
21.03205671523183
21.03193538149428
20.05591702021832
20.05727597468967
20.05605297143261
20.0573811764464
18.75677730823092
18.92014978892664
18.92009087940635
19.73113000967104
19.73240387418432
19.73125576349564
19.73249391792878
20.8710565846158
21.03252054091343
21.03241380717578
20.22108931563674
20.22113868038058
20.05768365940503
20.05778865266969
21.02999817341717
21.03051198618249
20.05566319293175
20.05608262319089
18.75663827217129
18.75695485098382
19.73089134444952
19.73128321142322
21.03213690397712
21.03104712905481
21.03248522290264
20.05614148655851
20.05745462804971
20.05652597894661
20.05780522457662
21.03072633213888
21.03146192091913
20.05686961183293
20.05625893065772
18.75708186819806
18.91967476626505
19.73201968096987
19.73144797403463
21.03124196666304
21.03263133434477
21.03191253207511
20.05725024706742
20.22052359910442
20.05668802571055
20.05791616455438
22.33144369866631
21.35663073816631
21.03172921705121
20.05709495879374
22.33196029207127
22.33333406659738
21.35830217667528
21.35708094702601
21.03332443764587
21.03215713175355
20.05745757404184
20.22086868299753
26.23131272574931
26.23098017749455
25.25432951934715
25.25467815074174
24.92899244586802
23.95350157866177
24.929337133904
23.95381680403077
23.62847980203406
22.65371520942625
23.62878150316066
22.65397219227885
21.35466275696431
21.35446426519394
22.32886826884971
22.32911009231037
26.23201734260833
26.2345271823921
26.23436723412982
25.25542819939514
25.25799679474447
25.25572129753563
25.25817547326607
23.95451015825913
24.93265990589718
23.95697391644665
24.93037438368589
23.95478193437867
24.93284054154348
23.9571505365852
22.65454980179535
23.63184127566052
22.6566742835567
23.62971047817973
22.65477653130495
23.63201403360157
22.65683085154716
21.35511849946208
21.35697383575388
21.35684496191682
22.32965648566493
22.3316820907718
22.32987095316764
22.33183226418255
25.91098848346714
26.23509423744259
26.23495918406514
25.58558000793953
25.58562743153855
25.25866288061502
25.25881563116003
24.60974974668608
24.28447224720156
24.28452403218625
24.93333507886772
23.95763966475413
24.93349018767873
23.95779338676604
23.30903077561208
22.98387254619531
22.98392198022575
23.63249436668215
22.65727138760775
23.6326453962799
22.65741008814325
21.3587135452565
21.35746213259164
21.35734736823976
22.33372797269093
22.0087330578278
22.33225661569121
22.33239023415167
26.23152352033532
26.23237727347811
25.25490028075036
25.25580920556944
24.92955714205737
23.95401906552433
24.93046059737945
23.95485848721063
23.62897541228765
22.65413814676144
23.62978291643834
22.6548359352573
21.3547916888026
21.35534020738637
22.32926649130196
22.32992608985313
26.23462989178471
26.23317922329307
26.2350568448943
25.25590861933519
25.25829054598626
25.25667986171251
25.25877174840012
23.9549567046105
24.93295699683808
23.95726477767048
24.93133202739567
23.9556853125392
24.93344502086051
23.95774668038375
22.65492318450429
23.63212590254259
22.65693259721921
23.63058379108452
22.65554180941262
23.63259883612472
22.65736552459461
21.35705864038545
21.35590839669662
21.3574241566944
22.33000987104611
22.33193000440217
22.33059750007732
22.33234682670961
25.91124351777268
26.23518117551499
26.23554440036004
25.58573504009166
25.58589598927864
25.25891421326808
25.25932824530563
24.2846419661979
24.610041997475
24.28481916662723
24.93359038518097