/*--------------------------------*- C++ -*----------------------------------*\
  =========                 |
  \\      /  F ield         | OpenFOAM: The Open Source CFD Toolbox
   \\    /   O peration     | Website:  https://openfoam.org
    \\  /    A nd           | Version:  7
     \\/     M anipulation  |
\*---------------------------------------------------------------------------*/
FoamFile
{
    version     2.0;
    format      ascii;
    class       volVectorField;
    location    "0";
    object      U;
}
// * * * * * * * * * * * * * * * * * * * * * * * * * * * * * * * * * * * * * //

dimensions      [0 1 -1 0 0 0 0];

internalField   nonuniform List<vector> 
12684
(
(0.9999727455319759 -0.0002496687984012622 -1.186027147828207e-05)
(0.9999606450789914 -0.0002122535544179233 -1.012647476201621e-05)
(0.9999534691613711 -0.0001784168495600002 -8.547824673864153e-06)
(0.9999496990803014 -0.0001482234759962966 -7.129965943578472e-06)
(0.9999481699812771 -0.0001214429688954568 -5.864181833338774e-06)
(0.9999480163591248 -9.768705759741886e-05 -4.73388795984189e-06)
(0.9999486113444045 -7.649480215395006e-05 -3.71876485134421e-06)
(0.9999495115936844 -5.738161609132184e-05 -2.797178002260162e-06)
(0.9999504121852903 -3.986464451453419e-05 -1.947450772181208e-06)
(0.9999511122686506 -2.347325857703342e-05 -1.148407790650435e-06)
(0.99995149072385 -7.750524114178053e-06 -3.794750312417761e-07)
(1.000006521468132 -0.0002132016362739567 -9.42755096988713e-06)
(0.9999922096735666 -0.000184075485493527 -8.184148268799017e-06)
(0.9999823346915723 -0.0001568424090340313 -7.01107527505583e-06)
(0.9999757699777146 -0.0001318365691634169 -5.924348964116436e-06)
(0.9999715937245458 -0.0001091009495546996 -4.927348575656258e-06)
(0.999969080420089 -8.849515972491209e-05 -4.015395084858609e-06)
(0.9999676764696004 -6.977025334593015e-05 -3.178989019812511e-06)
(0.9999669713841215 -5.261771660005326e-05 -2.405955181658039e-06)
(0.9999666706601479 -3.669965459748936e-05 -1.682774823698564e-06)
(0.9999665731892391 -2.166598238259317e-05 -9.953509285910004e-07)
(0.9999665542446782 -7.163047572584903e-06 -3.293982976321692e-07)
(1.00003212048693 -0.0001798150634713874 -7.506912586839271e-06)
(1.000017004306233 -0.0001573931676814322 -6.61661993266604e-06)
(1.000005708077701 -0.0001357457579240242 -5.746190680990149e-06)
(0.9999974405397812 -0.0001153184229328663 -4.91459307271496e-06)
(0.9999915113907154 -9.630275919555754e-05 -4.130749734265737e-06)
(0.999987347055333 -7.871362258749687e-05 -3.396528156442269e-06)
(0.9999844887875294 -6.244822054921184e-05 -2.709062114062434e-06)
(0.9999825821924333 -4.732874208485292e-05 -2.062442794011183e-06)
(0.9999813639195081 -3.313164464543311e-05 -1.448889366447047e-06)
(0.9999806488756754 -1.960689134959148e-05 -8.595237183618738e-07)
(0.9999803197538024 -6.490079617307803e-06 -2.848642475655745e-07)
(1.000051346857361 -0.0001497531586090581 -6.003204642677761e-06)
(1.000036278979113 -0.0001326582338855875 -5.365068681317782e-06)
(1.00002440943632 -0.0001156428113574489 -4.718232442246602e-06)
(1.000015212976443 -9.916844401630813e-05 -4.080944656129451e-06)
(1.000008198524891 -8.349096764440364e-05 -3.463960894335903e-06)
(1.000002934958736 -6.871196671217873e-05 -2.872364242743712e-06)
(0.9999990613501033 -5.482206858528715e-05 -2.30711997923657e-06)
(0.9999962879600252 -4.173497358635927e-05 -1.766311254221412e-06)
(0.9999943925108833 -2.931293322037044e-05 -1.246073315456011e-06)
(0.9999932147542672 -1.738517187203391e-05 -7.412764934378246e-07)
(0.9999926512156424 -5.760964247778116e-06 -2.460179888055385e-07)
(1.000065667426177 -0.0001229132009546807 -4.835767175049307e-06)
(1.000051114653483 -0.0001100066598331761 -4.376513015703999e-06)
(1.00003919786757 -9.678764833099843e-05 -3.893464886782393e-06)
(1.000029592383494 -8.368139327633358e-05 -3.402637570916475e-06)
(1.000021967868019 -7.095481961723258e-05 -2.914697975188541e-06)
(1.000016015954393 -5.874862164442125e-05 -2.435992656091204e-06)
(1.000011465780656 -4.710714664822033e-05 -1.969527795853054e-06)
(1.000008091327798 -3.600392332783671e-05 -1.515820914538245e-06)
(1.000005713721222 -2.536229067291303e-05 -1.073600488335184e-06)
(1.000004200844648 -1.50715029486718e-05 -6.403621549272256e-07)
(1.000003465889925 -4.999142402114823e-06 -2.128068618008203e-07)
(1.000076234402775 -9.899196843223188e-05 -3.938831112558357e-06)
(1.000062404531737 -8.936631727158665e-05 -3.605637591497132e-06)
(1.000050734702878 -7.924553139975713e-05 -3.241508450582936e-06)
(1.000041045805157 -6.899363907023749e-05 -2.859860413771607e-06)
(1.000033131296522 -5.885758053701911e-05 -2.470416142152936e-06)
(1.000026782631705 -4.898585818734058e-05 -2.079727385519384e-06)
(1.00002180604842 -3.94481194880988e-05 -1.691754045564539e-06)
(1.000018032816 -3.025338203774365e-05 -1.308422368201321e-06)
(1.000015324931262 -2.13658570648456e-05 -9.301246769283596e-07)
(1.000013577902538 -1.271814994916387e-05 -5.56149715530403e-07)
(1.000012721860993 -4.222111714486881e-06 -1.85048700388068e-07)
(1.000083928758104 -7.758176222720989e-05 -3.26038785869431e-06)
(1.000070861090516 -7.053548477224719e-05 -3.015195762780438e-06)
(1.000059570545771 -6.29517171462702e-05 -2.73636885250732e-06)
(1.000049980334356 -5.512439885968848e-05 -2.434920267338625e-06)
(1.000041975648902 -4.726390466414509e-05 -2.119373649578433e-06)
(1.000035425415442 -3.950705264677367e-05 -1.795981786502496e-06)
(1.000030198256805 -3.192931964155428e-05 -1.469041102551548e-06)
(1.000026173590221 -2.455729300442315e-05 -1.141239604605797e-06)
(1.000023248953311 -1.738025333366999e-05 -8.140010663389597e-07)
(1.000021344589998 -1.036042273510208e-05 -4.878069723531239e-07)
(1.000020406151588 -3.441847069782745e-06 -1.624909856790357e-07)
(1.000089407177998 -5.82290553719328e-05 -2.76047863931812e-06)
(1.000077034576818 -5.323660354600895e-05 -2.575660084214331e-06)
(1.000066145788791 -4.775568237084017e-05 -2.356771514731754e-06)
(1.000056733617639 -4.200958357192598e-05 -2.11285254941851e-06)
(1.000048748642735 -3.616436305337622e-05 -1.851290590114331e-06)
(1.000042117216727 -3.03336852716566e-05 -1.577864634949734e-06)
(1.000036755808062 -2.458605860913748e-05 -1.296892999241855e-06)
(1.000032581882308 -1.895295994901041e-05 -1.011438635807726e-06)
(1.000029521801532 -1.34369016041389e-05 -7.235400199726857e-07)
(1.000027516308802 -8.018945627243559e-06 -4.344480847573424e-07)
(1.000026524130798 -2.665504599649299e-06 -1.448591637580365e-07)
(1.000093144303793 -4.046730642136106e-05 -2.409445096440804e-06)
(1.000081334463517 -3.715094282966421e-05 -2.264560702670987e-06)
(1.000070797565747 -3.345265544771826e-05 -2.086116160740676e-06)
(1.000061571653674 -2.952805211565361e-05 -1.881680994732285e-06)
(1.000053651547202 -2.54960089871275e-05 -1.657724469769499e-06)
(1.000047003719887 -2.144070464350929e-05 -1.419564042602581e-06)
(1.000041578982128 -1.741563445373803e-05 -1.171413241370253e-06)
(1.000037322747226 -1.344858097180736e-05 -9.164954660190551e-07)
(1.000034182967633 -9.546843754307999e-06 -6.57197848641353e-07)
(1.000032115987003 -5.702321972582887e-06 -3.952468732678145e-07)
(1.000031090601813 -1.896272094865119e-06 -1.318941451056191e-07)
(1.000095466919749 -2.383281503739123e-05 -2.186411117798689e-06)
(1.000084049227791 -2.193950763880789e-05 -2.065776199100493e-06)
(1.000073768679506 -1.980512427002615e-05 -1.912263919924649e-06)
(1.0000646902641 -1.752121646602046e-05 -1.732480300220564e-06)
(1.000056835990208 -1.515894303327016e-05 -1.532262780944058e-06)
(1.000050197591261 -1.276976416204469e-05 -1.316580592260304e-06)
(1.000044747931734 -1.038740868085595e-05 -1.089527434772212e-06)
(1.000040450673008 -8.030526930814956e-06 -8.543817423171667e-07)
(1.000037268060531 -5.705610139832803e-06 -6.137132732009224e-07)
(1.000035166880461 -3.409916105829373e-06 -3.695195142372413e-07)
(1.000034122724868 -1.134272499144365e-06 -1.23379928417884e-07)
(1.000096579205837 -7.869943844997783e-06 -2.078112413794028e-06)
(1.000085362154284 -7.254591193565981e-06 -1.968923615434894e-06)
(1.000075215856919 -6.557017352690901e-06 -1.827291390699156e-06)
(1.00006621783491 -5.807413779569308e-06 -1.659346979608555e-06)
(1.000058402999506 -5.029446541858368e-06 -1.470608126774604e-06)
(1.000051775254238 -4.240404480881976e-06 -1.265859644605798e-06)
(1.000046318219359 -3.451783563990568e-06 -1.049121818456818e-06)
(1.000042004545767 -2.670116855802391e-06 -8.236860965793434e-07)
(1.000038803578458 -1.897910804734001e-06 -5.921993497707645e-07)
(1.000036687324643 -1.134598929343243e-06 -3.56781221691471e-07)
(1.000035634790418 -3.774666226669562e-07 -1.191627010129931e-07)
(0.9999764672718047 -0.0002439891220605951 -3.478251293886903e-05)
(0.9999640758274667 -0.0002077793213882421 -2.974605396428379e-05)
(0.9999565726883601 -0.0001749185154592512 -2.51446725775817e-05)
(0.9999524785675287 -0.0001455070014825287 -2.099981610346501e-05)
(0.9999506516334745 -0.0001193505949710353 -1.728999300853088e-05)
(0.999950238398142 -9.60941616997751e-05 -1.396979563299708e-05)
(0.9999506172225746 -7.530536326353434e-05 -1.098207894423257e-05)
(0.9999513461689804 -5.652365441039174e-05 -8.265179874336173e-06)
(0.999952119840153 -3.928627301125782e-05 -5.756793815222639e-06)
(0.9999527362435254 -2.313958924068851e-05 -3.395707598145645e-06)
(0.9999530731739152 -7.641483968137901e-06 -1.122217224678461e-06)
(1.000009134053959 -0.0002086928002809069 -2.769505396451672e-05)
(0.9999947124519637 -0.0001804402787063058 -2.407495423018025e-05)
(0.9999846751979939 -0.0001539407166844136 -2.064897099657325e-05)
(0.9999779281232251 -0.0001295420758330017 -1.746669658616244e-05)
(0.9999735708553489 -0.0001073056091659538 -1.454038573423907e-05)
(0.9999708912210572 -8.71100370718546e-05 -1.185827625615062e-05)
(0.9999693433895004 -6.872448979658747e-05 -9.394060429296267e-06)
(0.9999685210345389 -5.18567408486981e-05 -7.113208547719452e-06)
(0.9999681316431248 -3.61832874269386e-05 -4.97693947029704e-06)
(0.9999679749006412 -2.136678102200926e-05 -2.944538219700922e-06)
(0.9999679263063741 -7.065057832353435e-06 -9.745729112349181e-07)
(1.000033951527448 -0.0001762684190625626 -2.208710075364104e-05)
(1.000018827911064 -0.0001544734066815144 -1.948960237168206e-05)
(1.000007470891234 -0.000133371027847672 -1.694276533191944e-05)
(0.9999991136750479 -0.0001134091827567487 -1.45036419589293e-05)
(0.9999930836722364 -9.478710766842283e-05 -1.219977218118889e-05)
(0.9999888195175114 -7.752976921574983e-05 -1.003784155445552e-05)
(0.9999858705187973 -6.154521332897186e-05 -8.010442618647884e-06)
(0.99998388737135 -4.666625373164265e-05 -6.101033109005612e-06)
(0.9999826097999795 -3.267934665462548e-05 -4.287393690034952e-06)
(0.99998185447312 -1.934374282761287e-05 -2.54393775864749e-06)
(0.9999815050127696 -6.403721440288833e-06 -8.432019415133573e-07)
(1.000052631064728 -0.0001469866151452928 -1.768788520179849e-05)
(1.000037609843178 -0.0001303381231497799 -1.582242236459596e-05)
(1.000025739421917 -0.0001137239167848767 -1.392649127796959e-05)
(1.000016512043404 -9.760249010314674e-05 -1.20544185878143e-05)
(1.00000945026889 -8.223148546534779e-05 -1.023857950692856e-05)
(1.000004133115397 -6.771712637312826e-05 -8.494649471835001e-06)
(1.000000206904984 -5.40561223270523e-05 -6.826119674395825e-06)
(0.999997386901213 -4.116882949653223e-05 -5.227908158590809e-06)
(0.9999954541540286 -2.892424116782632e-05 -3.689107108757885e-06)
(0.9999942505258556 -1.715818311008637e-05 -2.195004727478803e-06)
(0.999993673770642 -5.686333383947292e-06 -7.285523156014176e-07)
(1.00006657102849 -0.0001207750997974543 -1.426654707841339e-05)
(1.000052090609424 -0.0001081843919179918 -1.292155648322834e-05)
(1.000040206524281 -9.525818419643815e-05 -1.150336427963021e-05)
(1.000030606106367 -8.241669888160712e-05 -1.005943169762895e-05)
(1.000022969035967 -6.992579112311646e-05 -8.621574839838437e-06)
(1.00001699488065 -5.792767632768348e-05 -7.208917473966437e-06)
(1.000012418815674 -4.646980335871943e-05 -5.830730653587151e-06)
(1.000009019252509 -3.552968126692773e-05 -4.48891671141728e-06)
(1.000006620446366 -2.503505815431365e-05 -3.180061327055655e-06)
(1.000005092380904 -1.487976450020859e-05 -1.897074152106103e-06)
(1.000004349529258 -4.935995639132409e-06 -6.304884248497992e-07)
(1.000076874477744 -9.736032557000871e-05 -1.163401632731096e-05)
(1.000063126758779 -8.795638154548457e-05 -1.065654566418788e-05)
(1.000051507114954 -7.804711050755578e-05 -9.585827012372085e-06)
(1.000041844436477 -6.799136043392127e-05 -8.46154017752902e-06)
(1.000033939291444 -5.803385177136178e-05 -7.31256539228922e-06)
(1.000027589103162 -4.832298978590762e-05 -6.158477426808307e-06)
(1.000022604900045 -3.892975826996566e-05 -5.011219347696228e-06)
(1.000018821646418 -2.986542282397762e-05 -3.876727765518678e-06)
(1.000016104070796 -2.109698623498074e-05 -2.756396416401908e-06)
(1.000014349588371 -1.256014636707231e-05 -1.648342861616652e-06)
(1.000013489530778 -4.169998842805188e-06 -5.484909718164594e-07)
(1.000084387802342 -7.636132573908735e-05 -9.640247608188953e-06)
(1.000071403824486 -6.946872235536305e-05 -8.91978988870621e-06)
(1.000060171545392 -6.203538246275938e-05 -8.098703298774132e-06)
(1.000050619365102 -5.435071214359271e-05 -7.209532313645552e-06)
(1.000042637406615 -4.662266748515753e-05 -6.277545862419426e-06)
(1.000036098974152 -3.89872662269599e-05 -5.321352566164697e-06)
(1.000030876382636 -3.152035641560351e-05 -4.353805885527938e-06)
(1.000026852024544 -2.424970271057849e-05 -3.383015605975839e-06)
(1.000023925722823 -1.716629065346434e-05 -2.413354691375852e-06)
(1.000022019368296 -1.023437461752066e-05 -1.446405825486494e-06)
(1.000021079674471 -3.400222192536576e-06 -4.81830621426706e-07)
(1.000089743780956 -5.7347721796296e-05 -8.169622959130981e-06)
(1.000077452702054 -5.245916009046497e-05 -7.62575315822325e-06)
(1.000066625125166 -4.708220636817276e-05 -6.980302338643784e-06)
(1.000057257151455 -4.143658575358333e-05 -6.259978822521797e-06)
(1.000049302737361 -3.568622640246055e-05 -5.486663932473203e-06)
(1.000042691414232 -2.994382403785496e-05 -4.677522995932768e-06)
(1.000037342463562 -2.427780118109432e-05 -3.845426624302214e-06)
(1.00003317571218 -1.872018923414642e-05 -2.999546045832751e-06)
(1.000030119398889 -1.327449827160967e-05 -2.146027944674232e-06)
(1.000028115656831 -7.923079810251962e-06 -1.288690473957844e-06)
(1.000027124127589 -2.633815014767751e-06 -4.297101967942485e-07)
(1.000093400879913 -3.987273648655761e-05 -7.136126048722817e-06)
(1.000081669339915 -3.662284880680794e-05 -6.709201615985598e-06)
(1.000071194119729 -3.299227258177326e-05 -6.182387722689269e-06)
(1.000062015345068 -2.913409514226522e-05 -5.578053310251143e-06)
(1.00005413016833 -2.516558732826592e-05 -4.915354317357074e-06)
(1.000047507399372 -2.117008902770801e-05 -4.21007021295107e-06)
(1.000042100017439 -1.720086297623903e-05 -3.474735586012144e-06)
(1.000037855327454 -1.328591490374371e-05 -2.718968685737274e-06)
(1.000034722832247 -9.433094623767893e-06 -1.949920600948025e-06)
(1.000032660051553 -5.6350745244556e-06 -1.172790937452426e-06)
(1.000031636569293 -1.874025743949891e-06 -3.91375259482107e-07)
(1.000095675342224 -2.348964904354017e-05 -6.479101197841289e-06)
(1.000084333165961 -2.163331208470096e-05 -6.123253510524504e-06)
(1.000074113878831 -1.953705575813231e-05 -5.669631598703762e-06)
(1.000065083836708 -1.729094195074848e-05 -5.137762799201076e-06)
(1.000057266743476 -1.496514396408673e-05 -4.544931530126031e-06)
(1.000050656138584 -1.261057032032651e-05 -3.905877553177156e-06)
(1.000045226637686 -1.026074970752357e-05 -3.232767552864635e-06)
(1.000040943480533 -7.934402941047079e-06 -2.535367528172529e-06)
(1.000037770239268 -5.63829026596192e-06 -1.821353629916068e-06)
(1.000035674725711 -3.370076681064425e-06 -1.096712511768155e-06)
(1.00003463322786 -1.121086360560997e-06 -3.661957416926574e-07)
(1.000096765029516 -7.757777329336009e-06 -6.159958939933056e-06)
(1.0000856219332 -7.154279587050598e-06 -5.837678947527562e-06)
(1.000075536489862 -6.469010089857369e-06 -5.418949055767382e-06)
(1.000066587256862 -5.731668555361624e-06 -4.921896938726882e-06)
(1.000058810539961 -4.965589935832379e-06 -4.362860934525857e-06)
(1.00005221179363 -4.187872070138776e-06 -3.7560315572782e-06)
(1.000046776184819 -3.409934889901337e-06 -3.113352620921857e-06)
(1.000042477786895 -2.638324936762569e-06 -2.444622035339879e-06)
(1.000039287158506 -1.875628526791645e-06 -1.757737241121489e-06)
(1.000037177255458 -1.121405697835964e-06 -1.059039595468862e-06)
(1.00003612773234 -3.730987799688431e-07 -3.537224881627098e-07)
(0.9999835337516882 -0.0002331447431340039 -5.542779316189858e-05)
(0.9999706271279359 -0.000199204953203902 -4.755112464711433e-05)
(0.9999625277648685 -0.0001681922920823567 -4.030719902298205e-05)
(0.9999578342841412 -0.0001402689043959663 -3.374432439951891e-05)
(0.9999554510739074 -0.000115305775811724 -2.784050265746301e-05)
(0.9999545495558337 -9.300830353374396e-05 -2.253326873141725e-05)
(0.9999545196964404 -7.299702365871653e-05 -1.773913495091856e-05)
(0.9999549234961398 -5.485626213726582e-05 -1.336541286841181e-05)
(0.999955455567291 -3.816106018122035e-05 -9.316807255900691e-06)
(0.9999559123658339 -2.248998496714346e-05 -5.498595107159402e-06)
(0.9999561700031304 -7.429124664219018e-06 -1.817670322688317e-06)
(1.000014113282659 -0.0002000528165118082 -4.427912567506186e-05)
(0.9999995074023532 -0.0001734527320589399 -3.859284444147467e-05)
(0.9999891789584173 -0.0001483475765292739 -3.317854385210677e-05)
(0.9999820967267374 -0.0001251083887995129 -2.812296014072722e-05)
(0.9999774024456016 -0.0001038289351261677 -2.345273793769026e-05)
(0.9999744105427257 -8.442277871452347e-05 -1.915517437624742e-05)
(0.9999725910040128 -6.669248715060198e-05 -1.519317522166729e-05)
(0.9999715462594003 -5.037627887911863e-05 -1.151540783599531e-05)
(0.9999709882115592 -3.517777589629101e-05 -8.062810417107212e-06)
(0.9999707184974609 -2.078379219180382e-05 -4.772504765544606e-06)
(0.9999706133240611 -6.874067457875164e-06 -1.579957868654891e-06)
(1.000037453304588 -0.0001694504958253884 -3.542008964165893e-05)
(1.000022332367919 -0.00014884590253594 -3.132331353195016e-05)
(1.000010872108128 -0.0001287831896442626 -2.728370266563748e-05)
(1.000002352925544 -0.0001097128492916242 -2.339641498089166e-05)
(0.9999961366839919 -9.184731703264694e-05 -1.970952970231631e-05)
(0.9999916860038091 -7.522986627485086e-05 -1.623744312014512e-05)
(0.9999885661962762 -5.978856762338481e-05 -1.297147112779525e-05)
(0.9999864382073949 -4.537610953929049e-05 -9.887730607532939e-06)
(0.9999850480539784 -3.17978182705778e-05 -6.952717930923237e-06)
(0.999984216074272 -1.883058880414374e-05 -4.127101967751554e-06)
(0.9999838278627827 -6.235272571804218e-06 -1.368228648285924e-06)
(1.000055094831923 -0.0001416532994449327 -2.844394088834673e-05)
(1.000040174708534 -0.0001258556149294965 -2.54904311661293e-05)
(1.000028312011661 -0.0001100091459821642 -2.247288591666882e-05)
(1.000019032599349 -9.456551195962809e-05 -1.948030924827317e-05)
(1.000011885428618 -7.978497754172052e-05 -1.656684925572665e-05)
(1.000006469292134 -6.578200962901884e-05 -1.375987423081047e-05)
(1.000002444760749 -5.256450976381748e-05 -1.106701866306593e-05)
(0.9999995370087544 -4.006528160267323e-05 -8.48188984576672e-06)
(0.9999975337322945 -2.81660532728536e-05 -5.988463636836608e-06)
(0.9999962810431599 -1.671520599381063e-05 -3.564362247729357e-06)
(0.9999956791854396 -5.540653819828486e-06 -1.18326764569732e-06)
(1.000068309638979 -0.0001166431224776151 -2.300014613001547e-05)
(1.000053976521381 -0.0001046562875348652 -2.086303933084462e-05)
(1.000042162211098 -9.229196034162335e-05 -1.859852735919269e-05)
(1.000032577093985 -7.996019777914338e-05 -1.628374266134638e-05)
(1.000024920186322 -6.792430499825739e-05 -1.39710325116713e-05)
(1.000018906471586 -5.632901488301135e-05 -1.169246713900189e-05)
(1.000014282924302 -4.522742845179115e-05 -9.464251621404925e-06)
(1.000010836663886 -3.460448649194007e-05 -7.290636358875435e-06)
(1.000008398129587 -2.439626888477588e-05 -5.167184974147508e-06)
(1.000006841473725 -1.450531744485193e-05 -3.083416046665023e-06)
(1.000006083722594 -4.812650296091021e-06 -1.024918775306292e-06)
(1.00007810933689 -9.420044398118386e-05 -1.879917623570653e-05)
(1.000064525870669 -8.522163044161379e-05 -1.724081990301796e-05)
(1.000053008101418 -7.571927538356171e-05 -1.552590207448684e-05)
(1.000043400254693 -6.604195756516068e-05 -1.371867208504061e-05)
(1.000035516611514 -5.642983623935525e-05 -1.186628961370295e-05)
(1.00002916616868 -4.703088024606167e-05 -1.000107711824748e-05)
(1.000024169289141 -3.791844740698175e-05 -8.143107154653665e-06)
(1.000020368168322 -2.910798446464537e-05 -6.302753083442543e-06)
(1.000017632901341 -2.057176804944e-05 -4.483013048422014e-06)
(1.000015864661749 -1.225138632519361e-05 -2.681541724294814e-06)
(1.000014997153181 -4.068144703808586e-06 -8.924024574681753e-07)
(1.00008527560995 -7.399364052524449e-05 -1.560965057319189e-05)
(1.000072457689978 -6.739644967900993e-05 -1.445742252572353e-05)
(1.000061341883974 -6.025313801923826e-05 -1.313854180551297e-05)
(1.00005186653313 -5.284421031451457e-05 -1.170562875037714e-05)
(1.000043931263641 -4.537279243799612e-05 -1.019979759532132e-05)
(1.000037417860418 -3.797320698668009e-05 -8.651553692950895e-06)
(1.000032205820084 -3.072189146498601e-05 -7.082180684153671e-06)
(1.000028183343243 -2.364878336667297e-05 -5.505322639015612e-06)
(1.000025254727726 -1.674808598784266e-05 -3.928579469162004e-06)
(1.00002334509707 -9.987925619288703e-06 -2.355021724307011e-06)
(1.000022403253623 -3.318824124225081e-06 -7.845927923421569e-07)
(1.000090396284444 -5.563550089879416e-05 -1.325224946251573e-05)
(1.000078266373176 -5.094706569102598e-05 -1.237988272895236e-05)
(1.000067560340782 -4.577092695220337e-05 -1.134036246258643e-05)
(1.000058280600274 -4.031983746171973e-05 -1.017686362838305e-05)
(1.000050387614842 -3.475352180940655e-05 -8.924932041622199e-06)
(1.000043817069654 -2.918271426428089e-05 -7.612605818006559e-06)
(1.00003849371276 -2.367559294175019e-05 -6.261048104185089e-06)
(1.000034341973798 -1.826519706713472e-05 -4.885473567557309e-06)
(1.000031293759089 -1.295691629624838e-05 -3.496215721857298e-06)
(1.000029293923612 -7.735558778801986e-06 -2.099839169757256e-06)
(1.000028303902924 -2.571818689061094e-06 -7.002455787284132e-07)
(1.000093899287126 -3.871640888222308e-05 -1.159294386816472e-05)
(1.000082322263925 -3.559478247956671e-05 -1.090635473261904e-05)
(1.000071969112204 -3.209517503798263e-05 -1.005592523600772e-05)
(1.000062883938273 -2.836575694811679e-05 -9.077830783152209e-06)
(1.000055068386838 -2.452064328510627e-05 -8.003173396710455e-06)
(1.000048495789286 -2.064150043506448e-05 -6.857682074913679e-06)
(1.000043123337281 -1.678109470074363e-05 -5.661894211722585e-06)
(1.000038902019889 -1.296782465003197e-05 -4.431662102039059e-06)
(1.000035784366015 -9.210573928656436e-06 -3.178861803575129e-06)
(1.000033730194678 -5.503487654601185e-06 -1.912216412963689e-06)
(1.00003271063109 -1.830489266353088e-06 -6.381763706549186e-07)
(1.000096080891939 -2.282178481786995e-05 -1.053688187338041e-05)
(1.000084887607019 -2.103685916151136e-05 -9.963401725941677e-06)
(1.000074789366314 -1.901441993539795e-05 -9.229807678433219e-06)
(1.000065855132028 -1.684162593890314e-05 -8.367698815635175e-06)
(1.000058111871354 -1.458671774430117e-05 -7.405137523674983e-06)
(1.000051556618237 -1.229950983925242e-05 -6.366138425630037e-06)
(1.000046167388545 -1.001311918157667e-05 -5.270600655415914e-06)
(1.000041912494571 -7.746382186012794e-06 -4.134568610768198e-06)
(1.000038758096084 -5.506563088979793e-06 -2.970721219806741e-06)
(1.000036674008274 -3.292102216013197e-06 -1.789010645250598e-06)
(1.000035637879842 -1.095274985995949e-06 -5.973924673501815e-07)
(1.000097126961633 -7.53940364845069e-06 -1.002356376635997e-05)
(1.000086129628806 -6.958817537653881e-06 -9.503559522339223e-06)
(1.000076164345426 -6.297381860987134e-06 -8.825715134506987e-06)
(1.000067311640464 -5.583838424764851e-06 -8.019377116076657e-06)
(1.000059610502938 -4.840873424668063e-06 -7.111074086361915e-06)
(1.000053069387849 -4.085206841360543e-06 -6.12391909910878e-06)
(1.000047676464934 -3.328103813342692e-06 -5.077432309559624e-06)
(1.000043408575982 -2.576130452337928e-06 -3.987689041436235e-06)
(1.000040238645985 -1.83202240220708e-06 -2.867705259831726e-06)
(1.000038141482781 -1.095580551762756e-06 -1.727986739784412e-06)
(1.00003709800829 -3.645478958056552e-07 -5.771846798320633e-07)
(0.9999932715764853 -0.0002180645889926045 -7.263531664771892e-05)
(0.9999797364428255 -0.0001872126568006734 -6.25954283945965e-05)
(0.9999708725886168 -0.0001587354753322104 -5.32720285497209e-05)
(0.9999653905030504 -0.0001328699847038455 -4.475364603128301e-05)
(0.9999622630839877 -0.0001095691849506729 -3.703385046456117e-05)
(0.9999607005289801 -8.861662714004998e-05 -3.004913941352241e-05)
(0.9999601125018616 -6.970246494604784e-05 -2.370433499958735e-05)
(0.9999600692940939 -5.247105445745053e-05 -1.788857275030372e-05)
(0.999960267615691 -3.654869046091863e-05 -1.248465880494305e-05)
(0.9999605032067773 -2.155807770468192e-05 -7.373980274606899e-06)
(0.9999606507345391 -7.124305717373952e-06 -2.43856655169399e-06)
(1.000021014717466 -0.0001879705359205021 -5.83015213009951e-05)
(1.000006209483138 -0.0001636329029081946 -5.100745173707421e-05)
(0.9999955190067346 -0.0001404520954576209 -4.399980235608725e-05)
(0.9999880012793515 -0.0001188245982207633 -3.740596879013991e-05)
(0.9999828589191762 -9.888424432009527e-05 -3.127391939459547e-05)
(0.9999794457681555 -8.058936054516708e-05 -2.559827795805154e-05)
(0.999977256004846 -6.37865522650293e-05 -2.033956336127297e-05)
(0.9999759060552298 -4.825485564993061e-05 -1.543757483792477e-05)
(0.9999751153641617 -3.373476634047936e-05 -1.08202239350502e-05)
(0.9999746892836378 -1.994630598481641e-05 -6.4090515165859e-06)
(0.9999745056426763 -6.599564669584864e-06 -2.122466986271083e-06)
(1.000042333550742 -0.0001598676919610983 -4.684117309128319e-05)
(1.000027254883288 -0.0001409030500735687 -4.155460435479732e-05)
(1.000015680893304 -0.0001222830249859168 -3.629840485243883e-05)
(1.000006958354188 -0.0001044578657602906 -3.120485392011755e-05)
(1.000000498321664 -8.765529439140298e-05 -2.634468334712203e-05)
(0.9999957982210353 -7.194177977931245e-05 -2.174378107459309e-05)
(0.9999924470067566 -5.727169403478441e-05 -1.739670245171162e-05)
(0.9999901210800179 -4.35243958130295e-05 -1.327692266192486e-05)
(0.9999885761653565 -3.053091606065623e-05 -9.344251066624656e-06)
(0.9999876384084483 -1.809245236274324e-05 -5.549998355142144e-06)
(0.9999871966051933 -5.992863709381463e-06 -1.840495298678304e-06)
(1.000058545943785 -0.0001341231022231372 -3.776659295131679e-05)
(1.000043794150113 -0.0001195042677282208 -3.393399648348333e-05)
(1.000031964191048 -0.0001047285566459058 -2.99879541181171e-05)
(1.000022629009945 -9.023579377224668e-05 -2.604947863694551e-05)
(1.000015375005158 -7.628804194692603e-05 -2.219426939731339e-05)
(1.000009829368512 -6.300982982108055e-05 -1.846270059393225e-05)
(1.000005673388812 -5.04236449805043e-05 -1.486873992286541e-05)
(1.000002646833204 -3.847898188171472e-05 -1.140731361121127e-05)
(1.000000547307612 -2.70749391770546e-05 -8.060085065949858e-06)
(0.9999992273359888 -1.607722269174953e-05 -4.799846283631514e-06)
(0.9999985909587485 -5.330762444063093e-06 -1.593818278730615e-06)
(1.000070756440165 -0.0001107858792650063 -3.065063735083688e-05)
(1.000056649428864 -9.964015167962868e-05 -2.786293754148815e-05)
(1.00004494936726 -8.806309378827393e-05 -2.488759564933682e-05)
(1.000035398868888 -7.644928896236718e-05 -2.182842001202672e-05)
(1.000027724285615 -6.505735435201572e-05 -1.875708623393518e-05)
(1.000021662618001 -5.403463646051824e-05 -1.571865160282518e-05)
(1.000016977854696 -4.344146643941979e-05 -1.273710540435499e-05)
(1.000013469785823 -3.327271819147376e-05 -9.820389395851319e-06)
(1.000010977924546 -2.347584147395841e-05 -6.964666573461321e-06)
(1.000009382585181 -1.396541467242557e-05 -4.157828519654999e-06)
(1.000008604590329 -4.634742408430743e-06 -1.382349207395162e-06)
(1.000079854749607 -8.970588374236817e-05 -2.513595575010932e-05)
(1.000066516935588 -8.132199271104366e-05 -2.309323040565896e-05)
(1.000055155053766 -7.239212546897181e-05 -2.082991419278638e-05)
(1.000045634749383 -6.324974245421966e-05 -1.843207748309776e-05)
(1.00003778965766 -5.412792989356606e-05 -1.596366335992082e-05)
(1.000031445256424 -4.517347228779502e-05 -1.346918631299907e-05)
(1.000026435307081 -3.6462613370486e-05 -1.097696181626121e-05)
(1.00002261245817 -2.801634789969803e-05 -8.502366594238885e-06)
(1.000019854611131 -1.981414481904675e-05 -6.050862357664972e-06)
(1.000018068435054 -1.180573796182645e-05 -3.620679356418455e-06)
(1.000017191115827 -3.921089789008714e-06 -1.205161614734484e-06)
(1.000086535556788 -7.061629443713788e-05 -2.093396941600602e-05)
(1.000073963187139 -6.443418028293242e-05 -1.941664774391807e-05)
(1.000063021617517 -5.770035929239626e-05 -1.766868647690168e-05)
(1.000053663064463 -5.068241052802245e-05 -1.576045761768755e-05)
(1.000045800555782 -4.357626142748823e-05 -1.374744657112213e-05)
(1.000039327934523 -3.651349238008924e-05 -1.167126476485798e-05)
(1.000034134979084 -2.957108097040873e-05 -9.561357240450635e-06)
(1.000030118254374 -2.278180606909897e-05 -7.43701462588289e-06)
(1.000027188534485 -1.614425056440974e-05 -5.309442849627005e-06)
(1.000025275640211 -9.631896971639015e-06 -3.183757664591923e-06)
(1.00002433141808 -3.201202568212739e-06 -1.060853025818336e-06)
(1.000091325777143 -5.318756127941639e-05 -1.781911245857256e-05)
(1.000079432870735 -4.878126844658269e-05 -1.666539260063601e-05)
(1.000068906823521 -4.388949634994787e-05 -1.528232161968096e-05)
(1.000059758847248 -3.871493785935599e-05 -1.372763511714442e-05)