/*--------------------------------*- C++ -*----------------------------------*\
  =========                 |
  \\      /  F ield         | OpenFOAM: The Open Source CFD Toolbox
   \\    /   O peration     | Website:  https://openfoam.org
    \\  /    A nd           | Version:  7
     \\/     M anipulation  |
\*---------------------------------------------------------------------------*/
FoamFile
{
    version     2.0;
    format      ascii;
    class       volVectorField;
    location    "0";
    object      grad(Phi);
}
// * * * * * * * * * * * * * * * * * * * * * * * * * * * * * * * * * * * * * //

dimensions      [0 1 -1 0 0 0 0];

internalField   nonuniform List<vector> 
12685
(
(-0.6622788955551242 0.05859171341471641 -0.6576981510430424)
(-0.6584803410584564 0.0889805059795651 -0.6472225481250045)
(-0.6530399736609169 0.1505162316703284 -0.6230309441074747)
(-0.6570556302103749 0.1014862235417671 -0.6425195669127413)
(-0.6522291390685686 0.1724371740682368 -0.6139896960555206)
(-0.6633237984763035 0.05018236410540013 -0.6602214817401653)
(-0.7411195200421956 0.01316175261923616 -0.780806840460526)
(-0.7409131957256726 0.009996761829560497 -0.7804810403792204)
(-0.7341684558167646 0.05065490826532554 -0.7707168002617968)
(-0.5298279739895453 0.05807295409234753 -0.6485557451142824)
(-0.6611152474959366 0.06774940284082728 -0.6547304631040645)
(-0.7310295871739158 0.06989177685436385 -0.7666110980751992)
(-0.528341081793018 0.07631099557459427 -0.6445254385243621)
(-0.6598431811760737 0.07781457559680409 -0.6512623666564674)
(-0.526063760606271 0.09958643605994842 -0.6374139587012211)
(-0.7259195533633496 0.09077799732106687 -0.7587690770512311)
(-0.729960761695744 0.06859568516082594 -0.7642741131483139)
(-0.527867425530857 0.07801779631195314 -0.642868250060542)
(-0.7117768527335111 0.152401351293363 -0.7342268293430272)
(-0.5212488205672506 0.1679595580721394 -0.6147847068798585)
(-0.6542363608825139 0.1318071888652548 -0.6306105462986402)
(-0.7179246536909988 0.1189168912891136 -0.744068629084656)
(-0.523237834378225 0.1337609512383136 -0.624754499257703)
(-0.5255918202052652 0.1025000609157906 -0.6351629526196467)
(-0.7245851632745074 0.09065780048303163 -0.7556296024437612)
(-0.655615797336323 0.1156328134088139 -0.6370347477515619)
(-0.7195293690247646 0.1172606022595678 -0.7483052517811017)
(-0.5235586863216797 0.1290310309011878 -0.6278282792615762)
(-0.709958153653825 0.1568749242116387 -0.7283620022754487)
(-0.5214510102705684 0.1755685783745355 -0.6104641256043872)
(-0.7349918708549454 0.05274734490387809 -0.7724308313998615)
(-0.5302395119797944 0.05718704740642748 -0.649759307456144)
(-0.6642445336048162 0.04238769205951613 -0.6623438996366317)
(-0.737330802948767 0.03549545896983759 -0.7754057538513804)
(-0.5313906510064775 0.04120733452500397 -0.652660158790237)
(-0.6657096106386632 0.02819960785225221 -0.6655000874592492)
(-0.5325395100664337 0.026381655473435 -0.6554483310199527)
(-0.7395517258777484 0.02218096666755769 -0.778621227880423)
(-0.6650392878317796 0.03509331769573416 -0.6640970874497343)
(-0.7379305029746476 0.03812430597577743 -0.7766102891875986)
(-0.5317135443269044 0.04087535532313604 -0.6535002152588615)
(-0.6670119399562459 0.009095585102326961 -0.6676427683469405)
(-0.5335161238167551 0.01300427919871136 -0.6571242125214108)
(-0.6662607395819965 0.02161851886366156 -0.6665555911103769)
(-0.532775361485215 0.02639770629966836 -0.6559628768363552)
(-0.6666986484190722 0.01527252671294417 -0.6672559557058262)
(-0.7399484462779145 0.02515250823457767 -0.7793779412208162)
(-0.5333366823189244 0.01278248717847085 -0.6569550146837964)
(-0.3001427500422748 0.09629708635182575 -0.675892345720741)
(-0.2994343479352264 0.1029656063284314 -0.6742387499658762)
(-0.2978631671261093 0.1175724772242339 -0.67056453135044)
(-0.2986756333075202 0.1100445723846768 -0.6724643233886526)
(-0.2929498102260902 0.1640157759096118 -0.6589882913582061)
(-0.2917734144030445 0.1756443063997856 -0.6561948850611425)
(-0.2905229674151037 0.1883156892321146 -0.6532082408472729)
(-0.5959328846998341 0.03039840067532599 -0.7748455301538131)
(-0.5052162237515744 0.02759409032496208 -0.7874442208755668)
(-0.584870823695494 0.026557395935619 -0.8382714837304462)
(-0.5048538391818181 0.03109145109383846 -0.7868364837545025)
(-0.5844325627473086 0.02992390676895037 -0.8376308857600663)
(-0.5963452421962508 0.02697757501999924 -0.7754855919770914)
(-0.6770942560025957 0.05415564615343049 -0.8586513174746674)
(-0.6760232085680085 0.05837713871489665 -0.8572686011206635)
(-0.6736342248686643 0.06741942933821821 -0.8541768496898495)
(-0.6748731625715736 0.06279246388915327 -0.8557777129416176)
(-0.6500834875938515 0.1510397842021646 -0.8234878355451839)
(-0.6528353325780348 0.1410368661107846 -0.8270864026629352)
(-0.6578087192444483 0.1232781698391318 -0.8335948545315253)
(-0.6553978263746092 0.1318107195378305 -0.8304527208155076)
(-0.6471567511965385 0.1619415952829667 -0.819624588880062)
(-0.6780842862681539 0.05010803165822379 -0.8599334689291814)
(-0.6790013508553834 0.0462194493967039 -0.8611165146184998)
(-0.6806184525152392 0.03885642508886495 -0.8632052415115455)
(-0.6798439116162645 0.04247311963427381 -0.8622067260519728)
(-0.590251175593743 0.06661569265572699 -0.7652282908143713)
(-0.576865753880238 0.07041476895331109 -0.8265001188582477)
(-0.4986876754422881 0.07316380155239176 -0.7762618223315005)
(-0.5779186568638913 0.06558123428649057 -0.8280489366527776)
(-0.4995459151580448 0.06814032225249536 -0.7777343422325295)
(-0.5892900878746881 0.07152344312351545 -0.7636575014890876)
(-0.5910482511580319 0.06193146861026556 -0.7666828409694522)
(-0.5798051366728633 0.05655939236084829 -0.8308284060327548)
(-0.5010778799278294 0.05876438660070515 -0.7803773393145116)
(-0.5788948710900491 0.06096906638291121 -0.8294910617824366)
(-0.500334249486603 0.06334695253741805 -0.7791078545929321)
(-0.5918852602260821 0.05745354977947176 -0.7680338167571028)
(-0.3030396260971834 0.06783573197413674 -0.6826380336550879)
(-0.3035009028938137 0.06292018642903573 -0.6837099890929932)
(-0.3025410918041119 0.07297901190024909 -0.6814782778482696)
(-0.3020039441142148 0.07837113674911922 -0.6802289406255381)
(-0.4347752431297739 0.07470155760049423 -0.7718853134022621)
(-0.4355648524371722 0.06957010892729515 -0.7733164707183681)
(-0.3651945588939724 0.06669115762026197 -0.6982860145936064)
(-0.4531535542711754 0.06069752402247582 -0.7005203206955363)
(-0.4525792865240946 0.06543232081287781 -0.6993091769214547)
(-0.3657102577125885 0.06186211518845884 -0.6994113470175276)
(-0.3646423245121299 0.07174298944735674 -0.6970675948231188)
(-0.4513254711321257 0.07557591948704295 -0.6965697141868172)
(-0.4519825652754073 0.07038506155001634 -0.6979817276173309)
(-0.3640466438099779 0.07703863993844047 -0.6957575414511823)
(-0.4369802717433514 0.05999418479216245 -0.7758828145116583)
(-0.4362985999175064 0.064674576806135 -0.7746483036888849)
(-0.3008055843946468 0.0899998993966918 -0.6774388759512902)
(-0.3014257004531173 0.08403595428874078 -0.6788825133333347)
(-0.4339285069630012 0.08009395200368635 -0.7703468366504547)
(-0.433020332019759 0.08577292076596502 -0.7686989982450249)
(-0.3620066925255812 0.09464950087540459 -0.6912046798499324)
(-0.4483040633123619 0.09925804439674224 -0.6897190827178414)
(-0.4491401487270292 0.09283963597317496 -0.6916061600657132)
(-0.361232310102003 0.101198800813469 -0.6894671917937473)
(-0.431010093033188 0.09811679486796791 -0.7650440373300964)
(-0.4320493058984916 0.09176979962744379 -0.7669322914328303)
(-0.362729723755306 0.08846238315330547 -0.6928308818797273)
(-0.4506474164112272 0.08103069740062389 -0.6950263493057405)
(-0.363411689982259 0.08260297029172903 -0.6943442578816695)
(-0.4499029512647474 0.08677440689840946 -0.6933905832826269)
(-0.6677388483245156 0.08853376103894542 -0.846532894728398)
(-0.6693670892896648 0.08281082574886667 -0.8486417720124696)
(-0.6723090523867205 0.07228225125374341 -0.8524568526679213)
(-0.6708855123997889 0.07740272497289932 -0.8506155054327185)
(-0.5872884416031797 0.08211218924169347 -0.7601531111522776)
(-0.5757408407072527 0.07549453542642361 -0.8248355974048338)
(-0.4977820939837385 0.07844325644664145 -0.7746739362070214)
(-0.5883827019606276 0.07668189296925924 -0.7619687842153851)
(-0.4967990143411551 0.08400250563064 -0.7729769943125817)
(-0.5745312417837879 0.08084367237762163 -0.8230536043572338)
(-0.5862642774154398 0.08784791319830242 -0.7582010732691787)
(-0.4946460772710271 0.09608635527639572 -0.7692042010974705)
(-0.5718593562001285 0.09247126966009682 -0.8191014021110172)
(-0.495765777956816 0.0898735629827702 -0.771151228512146)
(-0.5732424093614586 0.08649294035642015 -0.8211427026402065)
(-0.5850268753879038 0.09391553449827547 -0.7561098079354188)
(-0.2969965272182761 0.1255973078329926 -0.6685326279951797)
(-0.2960742250799196 0.134177154011816 -0.6663683106001469)
(-0.426103062747983 0.1278456847905739 -0.7560965132131359)
(-0.4274517593839713 0.1196654755048139 -0.7585570340598639)
(-0.3595352729050031 0.1155426332109121 -0.6856052771948707)
(-0.4474531466843839 0.1060700327569195 -0.6876600027061286)
(-0.3604125611221756 0.1081496861905602 -0.6875998801728461)
(-0.446521224704955 0.113314803369178 -0.6854849189953763)
(-0.4299008340478416 0.1048530789376539 -0.7630224802118534)
(-0.428715292545616 0.1120191521088089 -0.7608646698432098)
(-0.3586104334622854 0.1234276562340458 -0.6834658357809527)
(-0.4445520360171227 0.1293106500255892 -0.6806077743240353)
(-0.357624681542014 0.1318607110011899 -0.681187429874732)
(-0.4455807899255773 0.1210441993990496 -0.683111117005716)
(-0.6660053600927713 0.09460936794618918 -0.8442755136899361)
(-0.6641481317359843 0.101072320902726 -0.8418661562615766)
(-0.660057396752461 0.1153518903765777 -0.8365381418268586)
(-0.6621731866185457 0.1079714203476944 -0.8392885234637567)
(-0.576519478807052 0.139767306959058 -0.7398990050090644)
(-0.5634374757236899 0.1287601867612933 -0.8065719440864824)
(-0.4879465410817761 0.1337879179149832 -0.7572046137025055)
(-0.5613960098334054 0.1376716359219943 -0.8035318250547427)
(-0.4863283152095399 0.1430440895284789 -0.7542910724931015)
(-0.5782492872944267 0.1307333190628487 -0.7430886745910612)
(-0.5749815520678218 0.1495358585215089 -0.7364154716938618)
(-0.5569019908083223 0.1577535623535994 -0.7967897823007152)
(-0.4828271054693049 0.1639014648094135 -0.7478126255468144)
(-0.5592277713357763 0.147306399458657 -0.8002700707062825)
(-0.4846485843293117 0.1530508167647036 -0.7511548822067358)
(-0.5730703883762596 0.1601206272557391 -0.7327189228483385)
(-0.2940545379085101 0.1532982132560405 -0.6616068894560027)
(-0.2950951669971042 0.1433839929101983 -0.6640618512126262)
(-0.4246670694218043 0.1366274284647455 -0.7534662441123675)
(-0.4231346003639255 0.1460831852919888 -0.7506617416492832)
(-0.3543403275870614 0.1611907114339962 -0.6733650222713879)
(-0.4400863518925572 0.1692550768183427 -0.6684815727662503)
(-0.4412959683217275 0.1580603230819682 -0.6718240489628661)
(-0.3531173979094949 0.1726173944018925 -0.6703938042553741)
(-0.3554906481577477 0.1506568330177675 -0.6761503551853079)
(-0.4435250163199211 0.1381841423628042 -0.6778724209356543)
(-0.3565906131821668 0.140911562316325 -0.6787477066716548)
(-0.4424019539498763 0.1477357851276166 -0.6749878447985761)
(-0.4197590838786658 0.1673917129392408 -0.7444577458818028)
(-0.421502523473846 0.1563047636946984 -0.7476610463724633)
(-0.5812124625056477 0.1145186659536577 -0.7488560161027853)
(-0.5653426701020532 0.1204825186224951 -0.8094236086225126)
(-0.48944105137035 0.1251897298929383 -0.7599420335182554)
(-0.4908765430708564 0.1171817587282662 -0.7624894298003118)
(-0.5671369042510781 0.1127739205856903 -0.8120856169527235)
(-0.5796568641762881 0.1223368995513168 -0.7460896269942865)
(-0.5824883607108808 0.1072068730741539 -0.751453066597459)
(-0.4934730222798697 0.1026809964034907 -0.7671117439388792)
(-0.5703883896424133 0.09881742817394311 -0.8169150633125006)
(-0.5838795554309686 0.1003572727469785 -0.7538580753698306)
(-0.4922029550137587 0.1096956003557042 -0.7648832394964108)
(-0.5688117979340488 0.1055683166507524 -0.8145827583185072)
(-0.5544295578807831 0.1691382219010535 -0.7930458504817476)
(-0.4809429163509804 0.1757249994052701 -0.7442040679839891)
(-0.5714127523972155 0.1716566987084656 -0.7286437224242481)
(-0.4389186725910497 0.1814516314513934 -0.6647936638522174)
(-0.3518428654197517 0.1850672574030405 -0.6671977499389995)
(-0.4179001555579493 0.1794720293446401 -0.7410233601566907)
(-0.5938944022901024 0.04506043690911555 -0.7714835060598002)
(-0.582798716104283 0.04058034942551465 -0.8352314522715127)
(-0.5035173516311346 0.04216178774174033 -0.7845579965195614)
(-0.5821402119090883 0.04435752640928936 -0.8342659677135273)
(-0.5029770457384358 0.04608588261450523 -0.7836429141654624)
(-0.5945068126440805 0.04122421887846589 -0.7724532060963327)
(-0.5932994632048821 0.04903476210755069 -0.7704300217239891)
(-0.5806454869071609 0.05233167665215727 -0.8320681177157382)
(-0.5017582757647275 0.05437115372756951 -0.7815564788269705)
(-0.5814249687437016 0.04827016759546413 -0.8332121011584225)
(-0.592578325077794 0.05315944535857049 -0.7692780810605343)
(-0.5023964174434833 0.05015109063197696 -0.7826412726391249)
(-0.30432230829935 0.05369346570591167 -0.6856180740569898)
(-0.3039276110316022 0.05821273052951616 -0.6847019577868599)
(-0.3046869894185995 0.04934128200405991 -0.6864641514016504)
(-0.3050210445937439 0.04513918913727573 -0.6872385256859207)
(-0.439224327464102 0.04304231990236752 -0.7799467913123194)
(-0.4387313878652565 0.0470487169288363 -0.7790554555041681)
(-0.3666296984724861 0.05279164781535384 -0.7014151718697876)
(-0.4536731757999601 0.05615925039500851 -0.7016544794619394)
(-0.3661865378650431 0.05723516723597163 -0.7004543736892411)
(-0.4541696852103775 0.05180016263915739 -0.7026858854441929)
(-0.4376111438012896 0.05550819912017887 -0.7770269553379703)
(-0.4381945089506963 0.05119898038097724 -0.7780826125311558)
(-0.367037296129357 0.0485124564758956 -0.7023022216886627)
(-0.4550398185820471 0.04354865563871939 -0.7045147953182753)
(-0.4546166726086701 0.04760157934517828 -0.7036466687997343)
(-0.3674133894341816 0.04438166834295868 -0.7031132107071389)
(-0.4407813883377873 0.02817192306068581 -0.7827610459620835)
(-0.4404515954416859 0.03174221368525407 -0.7821662568623234)
(-0.3683524731279373 0.03273617776347743 -0.7051363314251439)
(-0.4563717238968771 0.02850320679277516 -0.7072639237904234)
(-0.4560839825159841 0.03211641308684806 -0.7066877727145723)
(-0.3686081878351694 0.02905609767136284 -0.7056810945549697)
(-0.3058564218877858 0.03330284829773021 -0.6891726425279635)
(-0.306084701038019 0.02956173323740811 -0.6896987197427399)
(-0.3056033281700276 0.03713474738052691 -0.6885877637566685)
(-0.3053257401375075 0.04107460286464255 -0.6879451431200756)
(-0.4396741319721553 0.03916462699217439 -0.7807611663679186)
(-0.4400829996425349 0.0354024959160605 -0.7814997941757393)
(-0.3680692288294047 0.03650772165974591 -0.7045268348554161)
(-0.4554177256351973 0.03962571644161858 -0.7053161646344073)
(-0.3677558955950094 0.04038453701272676 -0.7038546118360818)
(-0.4557713623691418 0.0358198591059279 -0.706033602074587)
(-0.6830563607757284 0.02542871243358571 -0.8663502138750667)
(-0.6825413194626696 0.02865222552329951 -0.8656874770655171)
(-0.681323800183 0.0353549538289749 -0.8641171432606632)
(-0.6819650538150297 0.03195778117172203 -0.8649432382102508)
(-0.595518698713543 0.03390594076378937 -0.7741317217693181)
(-0.5833976341198271 0.03692369790207183 -0.8361128604841358)
(-0.5040049074907497 0.03836299267971125 -0.7853955120658667)
(-0.5950089172580283 0.03750960108249142 -0.7733312346355685)
(-0.5044536812444104 0.03467759444898486 -0.7861526982537024)
(-0.5839430450079075 0.03337594848064988 -0.8369116444441219)
(-0.5977970735309017 0.007690828196434621 -0.7776650690597904)
(-0.5862944544111512 0.01064455187705265 -0.8403293095503626)
(-0.506416474933734 0.0110598509429395 -0.7893956364831495)
(-0.5864330194128878 0.007581477256283104 -0.8405236719632847)
(-0.5065391708898184 0.007877572754260044 -0.7895782822820864)
(-0.5976572509652905 0.01079717275687761 -0.7774827339630722)
(-0.5978832458300182 0.004609581071254177 -0.7777881401987243)
(-0.5865258085317585 0.004538317828819479 -0.8406556858973546)
(-0.5066194517855261 0.004716022205588311 -0.7897027733767307)
(-0.6847312505752954 0.01019185484687324 -0.868493572155329)
(-0.6848940904561936 0.007258895689957742 -0.8686987820748284)
(-0.685003199542916 0.004345160063680981 -0.8688373815649498)
(-0.3069199009236322 0.008441103814437403 -0.6915962856168678)
(-0.3068433584375753 0.0118514107324486 -0.6914267045416953)
(-0.3069702500260494 0.005054142657334166 -0.6917090049303573)
(-0.4418677058733143 0.0112932157860302 -0.7847054892423131)
(-0.4419762173503518 0.008043879093736833 -0.7848959598713717)
(-0.3696157686913837 0.00496736480398208 -0.7077085325169304)
(-0.4575088122055508 0.004871250106503434 -0.7093659749446644)
(-0.4420482136974722 0.004815451142504539 -0.7850233363523735)
(-0.3695574772513875 0.008296056602718305 -0.7075974802287235)
(-0.4573393497407282 0.01140946240452976 -0.7090899902031742)
(-0.4574423749716939 0.008127161784534206 -0.7092526812281157)
(-0.3694679853367094 0.01164707492918592 -0.7074340752615529)
(-0.4410725820875115 0.02467963969697542 -0.7832862513213533)
(-0.4413262081091099 0.02125561609271808 -0.7837419738048836)
(-0.3690331370615212 0.02192298505230377 -0.7065768110597351)
(-0.4566221089447957 0.02496720201260005 -0.707775300315363)
(-0.3688345106680687 0.02545480323751519 -0.7061622889145901)
(-0.4568467333871011 0.02149893469159786 -0.7082098156247135)
(-0.3064628592738693 0.0223048480677275 -0.6905677807745447)
(-0.3062871363971838 0.02589832480751368 -0.6901645681789808)
(-0.3066137482715908 0.01877323967826915 -0.6909118124001745)
(-0.3067406832544777 0.01529261006560051 -0.6911980465982992)
(-0.4417231639632613 0.01457201827915209 -0.7844505098935309)
(-0.4415427615533281 0.01788939802149542 -0.7841298441726563)
(-0.3692042936885086 0.01845084778844372 -0.706926682052613)
(-0.4572040925304161 0.01472747824514327 -0.708866434134783)
(-0.3693495212974813 0.01502905802579599 -0.7072116787530528)
(-0.4570386939648776 0.01808797315664297 -0.7085753509062092)
(-0.6845127570373847 0.01315178854105342 -0.8682172287676131)
(-0.6842371272181201 0.01614637134823311 -0.8678667544400106)
(-0.6835095170549552 0.02227582354451029 -0.8669341816769272)
(-0.6839031646922259 0.01918521220647983 -0.8674391055116754)
(-0.5969960705719692 0.02034727022016395 -0.7765229502790103)
(-0.5055335033220557 0.02417287402941451 -0.787980290667551)
(-0.5852558505693266 0.02326459338203344 -0.8388351007585607)
(-0.5966765257844328 0.02362975691616864 -0.7760407318943218)
(-0.5058136109625774 0.02081906275935055 -0.7884420323884432)
(-0.5855908084219551 0.02003675744336759 -0.8393218430168348)
(-0.597249941370112 0.01711820431652207 -0.7769182043147891)
(-0.5861088959733978 0.0137357115607387 -0.8400672026212822)
(-0.5062540661650817 0.01427174990571817 -0.7891484186158106)
(-0.5974804200338654 0.01393773938938479 -0.7772418194534165)
(-0.506052308474065 0.0175212584894118 -0.7888316885233533)
(-0.5858744594236761 0.01686308315481366 -0.8397322595932729)
(-0.6740819749621099 0.006935338895535475 -0.764317224232042)
(-0.7412827091303724 0.004147473725606812 -0.7809317694041835)
(-0.7043433747020936 0.009262158757296902 -0.7490688304512553)
(-0.6857065492469151 0.01037996053567842 -0.8196738209513981)
(-0.7044050477909254 0.008364333204600031 -0.7491398437954214)
(-0.6858599532059008 0.007393229131436584 -0.8198635190609225)
(-0.6739698143668078 0.01109955920284159 -0.7641490255798259)
(-0.673550602824345 0.01726450222964426 -0.7636116447289057)
(-0.7040525999477879 0.0143181396515094 -0.7487239108523004)
(-0.7406384221858269 0.01906995884579078 -0.7802560875775123)
(-0.6854926866507897 0.01339714799514717 -0.8194056658781487)
(-0.7039501163476101 0.01526524372517844 -0.7485827268471708)
(-0.6737408577020443 0.01303065425119544 -0.7639197522406762)
(-0.6852376284137176 0.01645121294491185 -0.8190746772577925)
(-0.667149916431106 0.06099426209696147 -0.7531265579823666)
(-0.6979954221474681 0.05554675054328026 -0.7391346605343273)
(-0.7331459738471309 0.06093879166530035 -0.7697459422597693)
(-0.6787783883289435 0.0551969442204361 -0.8097883062075719)
(-0.6778298314731023 0.05949831776001523 -0.8084288570836048)
(-0.697626198645912 0.05783940969703107 -0.7384232662021315)
(-0.6678796619130479 0.05539553789330302 -0.7544912311919592)
(-0.5755904016813596 0.0644117536900063 -0.691056130656849)
(-0.5618015084834314 0.059557184808238 -0.6608299412787395)
(-0.5293420573023179 0.06632493720157624 -0.6473494334489581)
(-0.5165903629626951 0.0593836038826937 -0.7050137707356083)
(-0.5616487469113034 0.06212216858916038 -0.6601208384606025)
(-0.5160039927671298 0.06400977493164296 -0.7038028754948641)
(-0.5762789769318883 0.05620230807279276 -0.6919307283166438)
(-0.6661932688868707 0.06429676500412505 -0.7515887730649651)
(-0.6757105391419573 0.06871184689766387 -0.80528930170028)
(-0.7322026257616342 0.05920618325578767 -0.7677380530417683)
(-0.6958460032947608 0.06694190182131439 -0.7353604730227259)
(-0.6768020048428274 0.0639978370382623 -0.8068683841312911)
(-0.6962627187163261 0.0642001913552922 -0.7361931108966767)
(-0.6653537356777366 0.07034900662626788 -0.7500003689612285)
(-0.5750334497800424 0.06544046684211242 -0.6891830394064701)
(-0.5147181069803892 0.07391961020417372 -0.7009512690854145)
(-0.5288944555095502 0.06758247753072044 -0.6459330478422235)
(-0.5606318922054619 0.0718803472185599 -0.6572953410412529)
(-0.5607936683189465 0.06883519927612221 -0.6581282284175579)
(-0.5153849276549975 0.06885021069090423 -0.7023627833868628)
(-0.5742514245162005 0.07408782971717452 -0.688165827223681)
(-0.5720843024644525 0.08682269685460475 -0.6822638797192712)
(-0.5583317960794972 0.09460282535149668 -0.650179957962161)
(-0.5116656366305999 0.09704259362070079 -0.6938106283620137)
(-0.5267595253695995 0.08957555288866365 -0.6393030110459174)
(-0.5125008005562379 0.09077983656302334 -0.6957002207985828)
(-0.5711079828498901 0.09665054332679601 -0.6809093324190473)
(-0.558492101721889 0.09027137279831551 -0.6513172869706305)
(-0.6621306001092854 0.08489868433920028 -0.7442947554486162)
(-0.691595472281575 0.08815690261724651 -0.7276756779214395)
(-0.727426936944448 0.07900463714913578 -0.7602636467912681)
(-0.6705442442539183 0.09022127598627827 -0.7974722892524371)
(-0.6921061339718706 0.08420839132938278 -0.7288037802590739)
(-0.6719581854034998 0.08439273230291841 -0.7995702512288472)
(-0.6610436661925196 0.09217407199685505 -0.7421734149516654)
(-0.663321652518987 0.08067206727473976 -0.7463714885696469)
(-0.6745361117318557 0.07366687578298975 -0.8034806248526213)
(-0.6943019695087655 0.07369393098341961 -0.7327701861178324)
(-0.7286264604837767 0.07977079249935302 -0.762973899790229)
(-0.6938377398646921 0.07698034894960765 -0.7318000970473569)
(-0.6642798358151029 0.0740685536265494 -0.748210008923871)
(-0.6732900783041971 0.07888288505588852 -0.8016572545830614)
(-0.5727563068170293 0.08476205463825581 -0.6848045013900947)
(-0.5140226389755947 0.07924889572016731 -0.699276103594561)
(-0.5596861828307955 0.07900988269524431 -0.654977192943712)
(-0.5272438911304491 0.08732447417178175 -0.6412349440474764)
(-0.5736346386810172 0.075582662492088 -0.685980497721428)
(-0.5132725797331015 0.08485618275040469 -0.6976401672711325)
(-0.5595209784244172 0.08263621128161662 -0.6540031108890899)
(-0.6511415373370618 0.1445396187234368 -0.7214007052588095)
(-0.6803900526136444 0.150503879072464 -0.7034233076025381)
(-0.7140964238371048 0.136375741750787 -0.7368433235284214)
(-0.6557411176028729 0.1538417987694842 -0.7733577552428086)
(-0.657992066928618 0.1436692287882014 -0.77705143274147)
(-0.681006252932844 0.1419448445679084 -0.7055538498472266)
(-0.6494167900584009 0.1565473357671296 -0.7175966373235116)
(-0.564677044838653 0.1486774471857275 -0.6604098534347584)
(-0.5536333580889702 0.1611307231265065 -0.6275317028152603)
(-0.5222031973714431 0.153016532898879 -0.6182031654791958)
(-0.5038173542262367 0.1652666119955577 -0.6714837799323738)
(-0.5535581520749814 0.1519241830916833 -0.6297207163099782)
(-0.5049431961439217 0.1543779334647252 -0.6748740920212447)
(-0.5633772666491282 0.1630785627732125 -0.6580197083369576)
(-0.6526834151505968 0.1367892988507846 -0.725199732814513)
(-0.6620889613417955 0.1255981861610729 -0.7839347979578122)
(-0.7158228242549231 0.1334831816869448 -0.7418041800490034)
(-0.6840990343670257 0.1244172814506114 -0.7127435024604343)
(-0.6600744232070598 0.1342797344595092 -0.7807438886506687)
(-0.6834838380881535 0.1314110379836112 -0.7109453540684978)
(-0.654228951704164 0.1263988578343324 -0.7284658364648205)
(-0.5653962991963778 0.1427092972834994 -0.6651116779539046)
(-0.5070149565745209 0.1350141564672767 -0.6812779420512014)
(-0.5223333557691677 0.1470222359175975 -0.6218265004829273)
(-0.5546883430014765 0.1332445251891406 -0.6364207308072168)
(-0.5546487201707615 0.1408016427888031 -0.6345834395831973)
(-0.5059407609413524 0.1443171194825562 -0.6783662257231463)
(-0.5666423270735028 0.1298728618511905 -0.6671755367991012)
(-0.5693154995113454 0.1100234789872863 -0.6764008472746115)
(-0.5572332890759762 0.1028543841913693 -0.6470731647609151)
(-0.5108197057266441 0.103692440585061 -0.6915680713403694)
(-0.5248228473623494 0.1133722049967373 -0.6329793582880188)
(-0.5703892552760295 0.09940088861764919 -0.677958593314787)
(-0.5570904843936496 0.1080451643712981 -0.6457438699761384)
(-0.5098991856346395 0.1107580387215269 -0.6893876990372564)
(-0.6585118526020451 0.1051187837389733 -0.737322378576592)
(-0.6896709538763151 0.0959665454878824 -0.724215618076584)
(-0.7228920530201162 0.1031666554128088 -0.7539145028523918)
(-0.6690430048411756 0.09641000859906622 -0.7950695199729841)
(-0.689116922851441 0.1007239385079822 -0.7229030334752333)
(-0.6597388935312383 0.09701995158262909 -0.7397675793251051)
(-0.6674460704200433 0.1029905250890421 -0.7926593209491826)
(-0.6571026712192385 0.1107265930486577 -0.7345326716413907)
(-0.6639663058104472 0.117528673414027 -0.787123810602985)
(-0.7214210175014865 0.1038394525711043 -0.7502738164232915)
(-0.6864069815926446 0.1150027501111673 -0.7173738577972176)
(-0.6869978691032863 0.1092491960544577 -0.7189056841512977)
(-0.665762973223315 0.1100163740113487 -0.7898936855936247)
(-0.6557230486118057 0.1198434449583295 -0.731711337592738)
(-0.5685650219496203 0.1136203162364866 -0.672969862088371)
(-0.507983124823044 0.1263591624439627 -0.6842792180114898)
(-0.5243987579847065 0.1170968339049499 -0.6303531441841163)
(-0.5558395308061616 0.1232991717846013 -0.6405907311835859)
(-0.5559457234686005 0.1170529800824193 -0.6421488312644711)
(-0.5089853679076614 0.1183009672927175 -0.6867955141786595)
(-0.5673988297383368 0.1252257816999852 -0.6711786925020637)
(-0.6459813929510465 0.1799308973614646 -0.7086337039247285)
(-0.677787978558956 0.162469064642639 -0.6970934912255479)
(-0.6534481857512773 0.1649314870126324 -0.7690526248463283)
(-0.7074238677278747 0.1747961588107628 -0.72531673477002)
(-0.6509448955793927 0.177044948329516 -0.7647438740884015)
(-0.6478959785519437 0.1658305234913039 -0.7131066675262664)
(-0.677213945575124 0.1730374567166438 -0.6945340335696996)
(-0.5614674017228554 0.1871623947152976 -0.6496478783502194)
(-0.5527172272731626 0.1737529935161865 -0.6218110841377603)
(-0.5028359084547217 0.1771353059683824 -0.6673851636859575)
(-0.5204770261359157 0.1926785820026643 -0.6064302556930177)
(-0.5627690829113974 0.1707361974651651 -0.6524390993778699)
(-0.5529873721696107 0.1850665358367634 -0.6191628645189545)
(-0.5016993771666287 0.1900830236676833 -0.6633980952395351)
(-0.6693485017568243 0.04721037970374083 -0.7569659159160774)
(-0.6991859161329591 0.04950796592092097 -0.7410414846673837)
(-0.6796693580550927 0.05107185742656724 -0.8111250529584533)
(-0.7358732828210374 0.0427929256066423 -0.7732595834405886)
(-0.6804851014135255 0.04710939377682598 -0.8122850406556694)
(-0.6687208468575853 0.05243641043898813 -0.7558035291930643)
(-0.6995082325085374 0.04758484750227705 -0.7416444970781637)
(-0.5773726428532938 0.04770863048305107 -0.6942718307652245)
(-0.5625623510683492 0.05318778348835933 -0.6625312772812938)
(-0.5171344309016724 0.05494606737353423 -0.7062435892183186)
(-0.5306611490969645 0.04932727282722767 -0.650785113216655)
(-0.562702266454116 0.05101865724380279 -0.6631308089778899)
(-0.5767740513358689 0.05555802015012934 -0.6935262737650598)
(-0.5176437240147161 0.05068469242336547 -0.7072741325523921)
(-0.6700770233872108 0.04453302757693013 -0.7580743860542283)
(-0.6819393140598109 0.03960549989666373 -0.8143947482999047)
(-0.7365822286849688 0.04518098805210356 -0.7747078727693169)
(-0.7008094038012004 0.04018947256491524 -0.7437619998365758)
(-0.6812477894962886 0.04329115336880008 -0.813417910835181)
(-0.7005331837161414 0.04181053592247706 -0.7432573470717536)
(-0.6706091279044359 0.0396114833082126 -0.7590516158296337)
(-0.5778054507618039 0.0473801537146853 -0.6956176352286144)
(-0.5185505205420828 0.04261414356708887 -0.7091804354911672)
(-0.5310302331463697 0.04874689046607641 -0.6517986999599904)
(-0.5634922752532797 0.04308653306874367 -0.6650693462818501)
(-0.563367694055087 0.04493188641450965 -0.6645684350293402)
(-0.5181149951442653 0.04657760790690038 -0.7083141943621317)
(-0.5783176167523558 0.03982484949292719 -0.6962449692753062)
(-0.5794305652938685 0.03256957196648375 -0.6987817014236247)
(-0.5199479615423175 0.02789322273535116 -0.7120313214151645)
(-0.5647419970776856 0.02859977807889102 -0.6679598705012462)
(-0.5322921632470139 0.03345997945074013 -0.6548865181684715)
(-0.5196499749371354 0.03142763887260371 -0.7114625204155407)