/*--------------------------------*- C++ -*----------------------------------*\
  =========                 |
  \\      /  F ield         | OpenFOAM: The Open Source CFD Toolbox
   \\    /   O peration     | Website:  https://openfoam.org
    \\  /    A nd           | Version:  7
     \\/     M anipulation  |
\*---------------------------------------------------------------------------*/
FoamFile
{
    version     2.0;
    format      ascii;
    class       volScalarField;
    location    "0";
    object      mag(grad(Phi));
}
// * * * * * * * * * * * * * * * * * * * * * * * * * * * * * * * * * * * * * //

dimensions      [0 1 -1 0 0 0 0];

internalField   nonuniform List<scalar> 
12685
(
0.9352075610601231
0.9275833745848748
0.9150321855053725
0.9245825807496371
0.9122065422441982
0.9372348351632146
1.0766107452694
1.076198380057755
1.065632970329617
0.8394728730218863
0.9329176444753121
1.061593940020189
0.8368875119517697
0.9303713248713411
0.8324404442466117
1.054006809770243
1.059085927423623
0.8354701565070124
1.033896269888996
0.823329206274071
0.9181873512744692
1.040766621389794
0.8258256521468297
0.8307737359443498
1.050818058331356
0.9214208002300992
1.044716857131458
0.8276056145283561
1.029155735612767
0.8218284069528023
1.06754143803149
0.8406018415882297
0.9389978478398513
1.070593631444901
0.842638327675546
0.9417297223662262
0.8449300776775306
1.074094859422147
0.9404965374024055
1.071969417100412
0.8434765078156297
0.9437873297721868
0.8465345807064337
0.9426914073580556
0.8454783974123835
0.9433720624975656
1.074982012445412
0.8462867717290706
0.7457809747148797
0.7448897480604247
0.7431033201623276
0.7439927473258949
0.7395852447189183
0.7393066852825548
0.7392884412172509
0.9779803993074846
0.9359878565200467
1.022486310971825
0.9353906827817408
1.021803484714598
0.978638513858986
1.094838595649142
1.093309070352251
1.089929602732568
1.091674023254293
1.059978194372372
1.063088560061926
1.069013657431158
1.066101354521005
1.056797713660879
1.096263966891655
1.09758859492739
1.099942993362807
1.098813973565331
0.9687148382576174
1.010363689054224
0.9255402510453302
1.011907067735817
0.9268548602427608
0.9672389519473232
0.9700392366487979
1.014716118748192
0.9292583529896956
1.01335675870195
0.9280928006904814
0.9713418632683563
0.7499529228625438
0.7506870833464271
0.7491793454086972
0.7483714512195349
0.8890538632684762
0.8902668726955328
0.7908338223214254
0.8365172161279379
0.8355493546907808
0.7916736361839205
0.7899457659313965
0.8334361206602768
0.8345182971571152
0.7890142377670172
0.8924938105983155
0.8914141930567944
0.7466641896760331
0.7475299067038436
0.887774317628118
0.8864320344967975
0.7859842764939521
0.8285777607593511
0.8298585131496877
0.784917185254387
0.8835660613592932
0.8850273659573704
0.7870280024338419
0.8322924330237604
0.7880388667889574
0.8311034618110563
1.08181853296322
1.084021582022144
1.088074846427367
1.086105561473523
0.9640969233729781
1.008727269029511
0.924153702049215
0.9657488000481853
0.9226912351047245
1.006995075854175
0.9624406092498793
0.9195555624408536
1.003245316922242
0.9211596936211098
1.005168257915704
0.9606136654255792
0.7422381663649161
0.7414244268888632
0.8772629460406065
0.8788877098639752
0.7827325907803009
0.8272493273787556
0.7838285297509111
0.8259001289167511
0.882049998915245
0.8804885793224499
0.7816401844782509
0.823149257065404
0.7805760530359033
0.8245209134616631
1.079497667988164
1.077054771123411
1.071810565516229
1.074493546889152
0.9483460060294164
0.9922697595574171
0.9106864778539627
0.9898395592570105
0.9088079355762549
0.9506020288612901
0.9461884089081725
0.9848349968295931
0.9051018875628084
0.987353564647888
0.9069412659416065
0.9438883965843196
0.7400622201056674
0.7406877002110003
0.8756258076809925
0.8740001358272936
0.777791724323196
0.8180408860680023
0.8191903015506512
0.7771206562307194
0.7786208224031624
0.8217787514698192
0.7795584539443415
0.8204595917482886
0.8708817425246697
0.8724062108394475
0.9548339040257312
0.9946330731115014
0.9125441937490161
0.9143749098007056
0.9969178875861591
0.9526899436264614
0.9568007709532389
0.9178885762604255
1.00122825560241
0.9587955544555795
0.9161567790090287
0.9991179115095606
0.9823042266660817
0.9033410535385217
0.9417538054300153
0.8170219771851406
0.7766570216209524
0.869463265256419
0.9746423980970047
1.019270664306531
0.9331873282690883
1.018260537070792
0.9323121977309214
0.9756135208733359
0.9736380638141525
1.015984812074418
0.9303483859568265
1.017166362437896
0.9725038632226674
0.9313670886335916
0.7520420194788138
0.751383714050443
0.7526631084292373
0.753241113607049
0.8961515766974095
0.8953358114214078
0.7932134247541516
0.837431919856388
0.792467522679954
0.8382844466027184
0.8935074497005799
0.8944541996043746
0.7939132482658963
0.8398207062971675
0.8390833473993492
0.7945630989992674
0.8987751357428506
0.8982144673911598
0.7962238678221973
0.8422053437645149
0.8416957117637517
0.7966819065118245
0.7547291976091273
0.7551463860049306
0.7542714975703527
0.7537767909225557
0.8969031214356972
0.8975902804666398
0.7957171809023913
0.8405036551501949
0.795164526483382
0.8411266517716629
1.103528569858337
1.102768520927824
1.100977080021661
1.101918526810395
0.9772778806389092
1.020196488148405
0.9339907795879505
0.97646494061636
0.9347256908041965
1.021040907288368
0.9809095012264005
1.024698903213682
0.9379367981297172
1.024910341535174
0.9381246461157352
0.9807090140207867
0.9810402718113467
1.025053707194945
0.9382515547931752
1.106002642083079
1.106241465814198
1.106402575649862
0.7566878485185463
0.7565475466267724
0.7567810953378797
0.9006316178458058
0.9008159348704939
0.7984308725091268
0.8441197360164778
0.9009392046196256
0.7983331056480146
0.8438590349459857
0.8440135917197583
0.7981887103839176
0.8992727388250883
0.8997066770248076
0.7974439563069091
0.8426582861931834
0.7970897198889892
0.8430493965044571
0.755844461649035
0.7555194665393483
0.7561240359036777
0.7563586783447037
0.9003856394738107
0.9000775818583334
0.7977453090178964
0.843649276823601
0.7979932957315697
0.8433804423069662
1.105681618015631
1.105275465679782
1.104199414770325
1.104781522661537
0.979697000094316
0.9365155574257328
1.023088450817172
0.979193780307643
0.9369747493107796
1.023610874660044
0.9801032708757484
1.024414570684731
0.9376844293033159
0.9804498757256221
0.9373640521321414
1.024052495519685
1.019124833939487
1.076741233936324
1.028245831416394
1.068721847822856
1.028332115119003
1.068940936224051
1.018961355590448
1.018366938567755
1.027853378307569
1.075968632419207
1.068412538441652
1.02769396850704
1.018660850897273
1.068037722520311
1.007972679858513
1.018137071929873
1.064765406520734
1.058085017370646
1.056669554409811
1.017495272922617
1.009152578335473
0.9016716476853127
0.8694045114254951
0.8388464102030422
0.8760344927243827
0.8689464886327503
0.8750404901450326
0.9022329474560182
1.006396159222336
1.053468988648706
1.062566598099298
1.014612193798672
1.055079744007763
1.015324447935748
1.005059764270564
0.8999551015867349
0.872772318568059
0.8375716319412198
0.8668979572179614
0.8673872192544904
0.8738852640095667
0.8993474917013666
0.8945963510907798
0.8622169488090109
0.8675207067922482
0.8331912848651813
0.8688479996618459
0.8939480827070372
0.8627146438651705
0.9997996805320178
1.00776377638704
1.05517415335849
1.045816195260034
1.00859154466597
1.04783706884538
0.998146365030072
1.001785404210188
1.05166862134967
1.012145328493247
1.058011847766461
1.011369450509293
1.00328065283884
1.049855415246911
0.8967673042820629
0.8714853584029348
0.8651510319543331
0.8347418391283171
0.8974066418398251
0.8702592233621754
0.8646459031098247
0.9824947738152587
0.9901446313493557
1.035118412986374
1.025546649332877
1.028301189616721
0.9908199081908292
0.9804051047620851
0.8815363422928734
0.8522142002820423
0.8235808354338086
0.85559070014364
0.8520890597154123
0.8568869340551165
0.8814638386077299
0.9852013018500212
1.033774861634179
1.039467900926113
0.9957280999575259
1.031159692251407
0.9949182450348496
0.9872460014637404
0.8845408203281343
0.8599026822625649
0.8252974428084299
0.8546722225249836
0.8544919234213573
0.8584778510593758
0.884914506593638
0.8909227857149747
0.8601114133387155
0.8659995908143259
0.8300332198159651
0.891544891433789
0.8596561585644181
0.8645923445394312
0.9941489368610631
1.004661069186814
1.049572940161794
1.043575092494571
1.003800897068982
0.9959539899329908
1.041345333818178
0.9917573012790281
1.036449775697885
1.046012292477253
0.9995025906735406
1.000363354834656
1.038882078778161
0.9898164725553897
0.8882928547081151
0.8615402145233501
0.8282818434984962
0.8570395292213211
0.8573984890840005
0.8629885873535172
0.8877520856971197
0.9756171452995053
0.9857647165292095
1.022564847162693
1.028147164322067
1.019758483056456
0.9776451712229737
0.9853619706965496
0.8788161190134832
0.8499032065105683
0.8541802059051298
0.8220577994993679
0.8783716002938649
0.8505335438799512
0.8531886389910941
1.011560000501474
1.020026698673301
1.05947280401003
1.068302909400933
1.060700832233471
1.010532593686291
1.02059426076446
0.9042392698462405
0.8707772577002317
0.8770559259567128
0.8411633007864151
0.8711941309921861
0.9037331975200659
0.8779297589418037
1.012750306150597
1.06294338030814
1.069937843721139
1.02270764471678
1.06189517953565
1.022216389214015
1.013629630354304
0.9055318394938568
0.8795723379403556
0.8421466102259945
0.8727526734222986
0.872383652964141
0.8788183086887452
0.9059770094899932
0.9083481839357349
0.8821068627228792
0.8751696173711105
0.8445891717029371
0.8815910111232452
0.8749106781325384
0.9086609242576494
1.016200734587432
1.066363383150082
1.025940281670888
1.073648443925278
1.025606717835053
1.065656633917766
1.01679282314223
1.015371681994969
1.07252038998973
1.063952108014947
1.02407398035649
1.024487484944912
1.014636684798645
1.064827136453223
0.9074500070057361
0.8438949171446662
0.8803292759407645
0.8737623053199705
0.907069511923302
0.8809643031430976
0.8740785971798989
1.019277023918479
1.07694915715643
1.028533565517754
1.069096718602178
0.9106773669384144
0.8768913809509301
0.8838327490335341
0.8466162547438155
0.8769559589926045
0.8839813076547804
0.9105866078250922
0.9096060146055961
0.88260131597507
0.8758221664088515
0.8457320123912484
0.9093656577145549
0.8760166206297548
0.8829933350634285
1.017891523341253
1.07532169846013
1.067017558220939
1.026815888083788
1.027064551412028
1.017446170875683
1.067557989038418
0.9101119893207364
0.8461288044810259
0.8766058989777838
0.8836128803167804
0.9102744291376296
0.8764826880484402
0.8833494143875488
0.8220796352883105
0.7396107846438603
0.9375906656646015
0.8990512481320087
0.9751012309562673
0.9773767837862541
0.9002393861499016
0.9356787603473059
0.9395337225014838
0.9798052044242673
0.9016921206495468
0.7403807088232178
0.7417337156505787
0.8665282608393736
0.8671989445435346
0.7764799685557288
0.8162367908366446
0.8682133087116658
0.7766775886768873
0.8156372693286498
0.7773826509635222
0.8157217439048334
0.8757865814573237
0.8518064172711926
0.8210331825981565
0.8499952997182969
0.8485363870025024
0.8521885254139313
0.8771077815348052
0.2505522631014667
0.25347911538888
0.2723730667684415
0.1519496377136503
0.2702665418915715
0.1973282003649104
0.1964942539368845
0.2036880623255145
0.1898547436545134
0.1336861870531763
0.1180706066564632
0.1304933474056996
0.12198086582746
0.217328292363655
0.2034276523833231
0.2103475642639568
0.2106759008934571
0.07029789850116505
0.09229041989927469
0.09342935124054087
0.07241929977806891
0.126163520022253
0.1146339801818512
0.128252018922615
0.1115284236728395
0.1693035771267694
0.155039666501785
0.1643306108741032
0.1603325223095761
0.1548813659451381
0.1499119390787155
0.1595293116618069
0.1449321742320677
0.2579114087727511
0.2525136877824062
0.1042893417284799
0.08827307899052024
0.1058031335137457
0.08573948753008706
0.1096165522007764
0.09107816975825452
0.1072629836391479
0.09430501795744788
0.1912433596061819
0.1773613880851508
0.1854136884864394
0.1834836338030171
0.1375438273073481
0.1307264470973992
0.1416793961632178
0.1262468623095837
0.2246479451838353
0.2261986109637967
0.2323329835008524
0.2182575497426122
0.09440448737866375
0.07747286498668023
0.0962858667681832
0.07476649932631481
0.123415608328579
0.1050611559345636
0.1198882890183827
0.1084210919772014
0.1744626629289119
0.1714741460984049
0.1798260047778527
0.1658047492024875
0.1503653664802018
0.1353460736458799
0.1459662138659664
0.140081112306891
0.2489356691026966
0.2345354082279427
0.2404187738576704
0.2432975208415905
0.1019759025146272
0.08036530155633162
0.09901958623780803
0.08316429364475537
0.1127271160183207
0.1014772780891588
0.1162124137373662
0.09783499248173587
0.06809415511213746
0.09025954708990533
0.08756629028495123
0.06561406216997204
0.2461001740809752
0.2662890138018074
0.2649234085030068
0.2679047173796479
0.06838489294155881
0.03373723005945375
0.06866387544102909
0.0325015626221886
0.06806336659907457
0.03508814874740845
0.0681450232666681
0.03679405154204311
0.07994781698522409
0.05187377692608963
0.07933126746070947
0.05352055155618785
0.07537790113817806
0.05011012824344752
0.07765363114593415
0.0480531463852579
0.0669232199848239
0.02939935789982318
0.06506826828626494
0.0310879001028408
0.08496052285280691
0.06020431154045204
0.08270802213510083
0.06292513025880407
0.06878384440264206
0.04107645447023524
0.06998104460800328
0.03883398946970205
0.06278696925680952
0.02757667126711075
0.06365307851060868
0.02581067477412945
0.08010357407035068
0.05762570543925931
0.08097354621337602
0.05537177360512534
0.07328350398832148
0.04341776169161827
0.0714928120781024
0.04577541538686504
0.2018220554718538
0.2686793976928911
0.2722562287866909
0.2046394287838798
0.2409093990194613
0.2818846312353767
0.2724409982707997
0.1968006720348242
0.2654356585346249
0.2479725670812036
0.1988739816468561
0.270731665627869
0.2716390663800793
0.245284602977428
0.2641119250389833
0.06386366456669552
0.02219507643004928
0.06399363445062253
0.02137215992369772
0.06255567697670915
0.02307339251772883
0.06314741398056076
0.02426622529085062
0.06256195652786749
0.01931230130863897
0.06108687889194221
0.02039667837245327
0.2644599963127475
0.1959554159527438
0.2683189962941786
0.059985874634645
0.0183342051218888
0.06022626977451443
0.01764496468047804
0.2677598183334309
0.3516194128783329
0.341194288971122
0.343639558059609
0.3462081376503188
0.3443058682417495
0.6042092837361396
0.6063799266061114
0.6043228805760072
0.6066876424887119
0.7437382538602821
0.541059359922724
0.5408296799696837
0.5392914255811365
0.3398303541407537
0.54116351340934
0.3441356428735465
0.5402657606247167
0.3455157771173674
0.3433808987574817
0.539356873797823
0.3435685916355009
0.539867496535838
0.3465442802116681
0.744210305155911
0.3394694514779198
0.6041330318653837
0.7015916232142062
0.7006033890949563
0.6072801953239225
0.6046449344095804
0.7003806756342239
0.6999688546361384
0.6057191838462285
0.7063327494194406
0.7051811225967252
0.6047478093336717
0.7022081549056464
0.7034005230419613
0.6090057243595892
0.6177830294876433
0.7009978217275954
0.7060775301768655
0.6073595912353046
0.706908975452045
0.707918847802874
0.660118485112837
0.6594983032100991
0.7429542428231493
0.5411077492922814
0.4880737466329531
0.4876451019267104
0.5404992471716483
0.4876518791006291
0.486883699951689
0.4872286855740594
0.4871758181896009
0.4269934282894681
0.4261226981960084
0.4870107397550781
0.4282152360553506
0.425093419312823
0.3430731828284931
0.4269233526613475
0.4241731462541246
0.4878847693181873
0.5413461366680047
0.4873412745697134
0.4247548312102865
0.347599110255801
0.4222723103882218
0.54016684477293
0.4869947562174373
0.4866471098546448
0.3501715208155267
0.4250800237665636
0.4222539670435231
0.349369456493669
0.4237490050276569
0.4218540036974465
0.5395404266232953
0.4866363730108902
0.4865141401118337
0.3493327908073796
0.4236921195543026
0.4224431807456761
0.5401009441733718
0.4875262829328635
0.4872132457204739
0.340439844854543
0.4268306389823586
0.425367898043013
0.6095655398315813
0.7450484950993702
0.660388569611537
0.609312091749212
0.7446874307827819
0.4882909223477367
0.5414818161198223
0.5414507329926324
0.487866695884782
0.4268994233044573
0.3432524325487936
0.4243891150610782
0.3473702500425593
0.422265160162425
0.5414144597132091
0.4874718661827036
0.3215824212780761
0.3046572372043813
0.2801169241479146
0.3003276790981613
0.3289911346257972
0.3592220117658547
0.2609115302368537
0.2275987298949011
0.2225095076422113
0.1526862290004043
0.1599278116267954
0.2386669059926984
0.2432644483288633
0.1847653368055531
0.1943386872048087
0.1759551947567769
0.1638047479582726
0.2805558183029812
0.2509251051740731
0.2820898450307138
0.3151426150866166
0.2737920164454248
0.3095592827485663
0.2599527504325911
0.2612308213804947
0.2341667673508588
0.2919500657720321
0.2386198289504152
0.2963248651640267
0.2540899960852996
0.2486255445790295
0.2843176993852636
0.3375984008831281
0.2942533455923837
0.347566287100295
0.3288773536495583
0.314692378039109
0.2120985814719443
0.2805294951096535
0.3586604303679854
0.3696706095906131
0.3850154443954878
0.3726784468987565
0.3906634176159655
0.4144424052520153
0.34797029886657
0.3650887666806157
0.3671077838961186
0.3802490198806015
0.3761546391952534
0.3972769067372171
0.4051561981579904
0.348268295715322
0.3545959145332015
0.5390232723910254
0.5450749416876558
0.5474742453978673
0.5387957827626444
0.6009682000191215
0.6039350007763665
0.6011051617142261
0.605629707464172
0.5394369043794583
0.5543082542278795
0.5385345592241585
0.5389563779594975
0.6007972014389964
0.601826942363381
0.6015105625075038
0.6108118606397376
0.5391459527280715
0.4893437699244136
0.4893455804245164
0.543236132617235
0.4985994166731974
0.496000010242425
0.5504646885348781
0.5018797403487338
0.5058256406551386
0.5385473004503381
0.4886483853962941
0.4874354097200134
0.6008300987395628
0.6027080446911431
0.6012583059985678
0.6078565711460696
0.5399413603541517
0.4908365638633497
0.489899768798629
0.4316692721617721
0.4298238685596827
0.432107939113176
0.4305688922535333
0.5417903849526809
0.5407274236659558
0.4921767080583128
0.4938483932311314
0.4431739669268703
0.4396140965387638
0.4341487441845905
0.4366060141491528
0.5590699357574803
0.5167575678308516
0.510780989199053
0.447509804379323
0.4526488811097306
0.4663950487927158
0.4589214898609266
0.5387447562768848
0.4875272378583674
0.4870232914202661
0.430676140244418
0.4260966185897013
0.4276585568122612
0.4248538877633712
0.5388859440361684
0.487542875705982
0.6009197946869108
0.601256108217897
0.6018618704642555
0.602207446312535
0.6146108255314467
0.6426572948084961
0.6422660500717401
0.6427566608363366
0.6438909884894364
0.60579990928774
0.605538867910224
0.6031799008748624
0.6061207898496526
0.6034644277692379
0.6041451766745373
0.6459330595711028
0.7883611032827669
0.7857713058017693
0.6435247490415327
0.7818750013419106
0.7848800075285732
0.6415974488646876
0.7809016674966923
0.77783239742091
0.6415865653005184
0.774772278942392
0.776966689908001
0.6477239418035279
0.774497571532101
0.7755450060236694
0.6463580230406508
0.647212333698955
0.7890974706596587
0.7911506620942967
0.7931921647827813
0.6489409509310029
0.7917112844501047
0.6059706742976914
0.6052255427487572
0.5391385186322315
0.6028608745288768
0.6025248465577233
0.6062963286129402
0.6049400840474864
0.6047031423654412
0.6037829405507881
0.6044628072973862
0.7945843488204051
0.7935670186513618
0.6492284062145837
0.6496464819283652
0.7944195851172516
0.606437540267406
0.6064948957119345
0.6065257750285669
0.6430690116894308
0.6878713446690162
0.6885535077052359
0.6418912194136683
0.6871939865001271
0.6865372051032937
0.6420257997392216
0.6847792852426425
0.6846192760253512
0.645487046602079
0.685252323634153
0.6861222747228897
0.6454809396771041
0.6925402442390821
0.6919335444239063
0.6450089260536936
0.6445272137027118
0.6906340418912308
0.691295131092812
0.7438097405980785
0.7875191214904003
0.7430931149414793
0.7415508900023123
0.7867006922633816
0.742335776442781
0.6440276635350728
0.6899463560744939
0.6892484591885747
0.7381777943213952
0.7829306537592737
0.7390361681750309
0.7407307671061988
0.7838761935519341
0.7398938916942233
0.64141769944222
0.6853946781945551
0.6859254825263262
0.7373107757703234
0.7798261339615886
0.7364618556340429
0.7348657956625707
0.7788688938222378
0.7356334766308306
0.6414076768026091
0.6849742061756182
0.6847020242212095
0.7329213916313008
0.7754022804826918
0.7331515438890174
0.734167816379152
0.7760622314346808
0.7335900571667814
0.6507091095374132
0.689557844382403
0.6875113138549764
0.7329403094008852
0.774372183477591
0.7333099039741484
0.7355037075169424
0.7747787168289926
0.7341117656726337
0.6467841006745332
0.6931178576265483
0.6936694447962947
0.6476068103311677
0.6946910385806899
0.6941991147745452
0.7444939722779205
0.789846788009539
0.7451374324688222
0.7463128556291041
0.7904974439306428
0.7457473992586077
0.7481725983333015
0.7927364243883921
0.7477691664095713
0.6486114994599732
0.6963304021105613
0.6959610375219391
0.648278376993551
0.6479515773335039
0.6951434563064864
0.695562959046379
0.7922661860191774
0.7468393184877747
0.7473223538396109
0.6500405722158005
0.6499590236378667
0.6975166395482357
0.6976213616694174
0.6500934594835849
0.6976929070185846
0.7947986990064639
0.7496749575111412
0.7494752657507262
0.7947148340705591
0.7495932612811591
0.7485324406651669
0.7939152146305543
0.7488412854591125
0.6494548039743827
0.6966592558251866
0.6969366260447563
0.6498217950760945
0.6973653539472394
0.6971707947766385
0.7941853694221659
0.7493125171143398
0.7491018330946061
0.1262447961373043
0.1622395644744013
0.1255994914773974
0.1564765618315053
0.1227425134990878
0.1519016929205593
0.1514974123622664
0.1234048412857187
0.1754808340201172
0.1832546010230268
0.1522686063827919
0.1809997025550031
0.1492690414496651
0.1719944138810103
0.1437946958081518
0.134913266784051
0.1623901923040423
0.1689842707143037
0.1343861884658841
0.1316982584240419
0.1568311962828727
0.1266342277143602
0.1656913718421216
0.1330228058783093
0.1578101300207463
0.1319743012661265
0.1588037274036918
0.1357891262610378
0.1661785875011463
0.1393501392915665
0.1622441425459758
0.1504705991307128
0.1181329785100217
0.1229700617998263
0.1587251219912654
0.1103069102079435
0.1468825186440733
0.1097581681106008
0.149623268796538
0.1377790872810209
0.10648496382406
0.144828178787089
0.1023971586505973
0.1442268088559916
0.1465234242681628
0.1149077475354092
0.1127782212955131
0.1032754728760704
0.1410173058376777
0.1055495056211827
0.1369398338165439
0.1031763244270842
0.1379423985937613
0.1372457442714105
0.1039176517477804
0.1356512026861264
0.1348632152062969
0.09968494488391988
0.1004235535940535
0.1165518764839893
0.1552885680919298
0.15069817406991
0.1173467048224079
0.1426455103428943
0.112761349683657
0.1116955191175823
0.1449380332692638
0.1094429718766274
0.1512971624980547
0.1139171400755793
0.1436254619086917
0.1067880604770851
0.1389978981613217
0.1051016137420062
0.1406373289005795
0.1074813261913485
0.1457793909150379
0.1470598099094511
0.1072191221953883
0.1354330878130067
0.09971973379952677
0.1034268907100853
0.1418338982367879
0.1350627295543067
0.1001652134078791
0.1400424852615838
0.1029830586288393
0.1338001949912285
0.09806437519741922
0.134011758201657
0.09826373680085351
0.6041007875889292
0.6535982460708769
0.6532872045935117
0.6060478754641372
0.6571302565873929
0.6566843295756606
0.6539663425405274
0.6045087672836431
0.6543621095087326
0.6575752850804821
0.6070204677775277
0.6579959852090532
0.7098933585549048
0.7435556676854983
0.7095767124995122
0.7102066850281337
0.7443564943782135
0.7104473770081408
0.653051933686696
0.6042648762376173
0.6529303132284704
0.7011240408342189
0.7340886958610887
0.7341498733005835
0.700287701483597
0.7327627848395646
0.7330604255748074
0.6061057730393002
0.6544009324811425
0.6536555732595107
0.6529655355650591
0.6051913904165872
0.6531789776335399
0.6999635715469203
0.732422574666131
0.7311834818810296
0.7317130781283008
0.6999293748162204
0.7323817264109331
0.6562113448123092
0.6053908019962092
0.6557481332695675
0.7058045132782169
0.7397302208728226
0.7394861528032897
0.7381809140150264
0.7046224455983926
0.7384051799507169
0.6548067716698385
0.6050741893416178
0.6552664889107754
0.7027460067199819
0.7354440984340217
0.7355297415523334
0.7369902415785472
0.7039678836577876
0.7368141961535435
0.6555735906547681
0.6111445756424516
0.6571587054384852
0.662364785357121
0.6141287563649711
0.6594369416715919
0.7315461503800613
0.7021535661010108
0.7336635938679988
0.7368823289224672
0.7037232633951402
0.733393965366656
0.6584183457936565
0.6076743376922044
0.6588015449433391
0.7073960877003456
0.7406946623390543
0.7409403460589109
0.7420196898317035
0.7083546758889299
0.7417864572243673
0.6598246944911448
0.6087500470035369
0.6084759817975794
0.6082039993662951
0.6079409538962821
0.6591669508880634
0.7091872721267386
0.7427434899756509
0.7088104660278242
0.6096233293578068
0.661069033081909
0.6611449649615353
0.6096623109084516
0.6612017912979682
0.7451507042276216
0.7111248826777291
0.7109685104819535
0.7110557359567383
0.7449876161680106
0.6089833107450675
0.6091603363953898
0.6606064797311962
0.6607977805095422
0.6094536097726062
0.6609470609975107
0.7106715057372172
0.7108318349438195
0.7447923889178563
0.210453223029193
0.2329949957265801
0.2163648018777931
0.2048270093540721
0.1994565230290953
0.2176528986811151
0.1748097514703476
0.1504665883245322
0.1718477103982682
0.1561569410959949
0.1788412472726451
0.1824686635506977
0.2225762507113024
0.22912077555957
0.2447005235788718
0.2360044099152797
0.2510476742785708
0.2577976464308158
0.2045426735939451
0.1802712786913137
0.2005570144370326
0.2130716672009416
0.1894455302098956
0.2086926948048795
0.1967615766527014
0.1930905835107236
0.1717886587068779
0.1860257921999046
0.189533533228419
0.1677482682363298
0.2675923821470592
0.2649215664646626
0.2725240824126738
0.2590295530242429
0.8771035378805528
0.8467426788220876
0.9108370928453691
0.8840939409236659
1.085574218733036
1.105357087914467
0.9101363419358631
1.022507234593691
1.190540239521914
1.092944659317405
1.123421577222951
1.053559457740666
1.04709373078571
1.115336453586458
1.089422029942424
1.119419578848897
1.050313991629885
1.180969679014985
1.185840470126763
1.152213304901257
1.109085597557357
1.156539539702587
0.9729601450680805
1.014087902111464
1.023061695602768
0.9809016689964554
1.016774536700607
0.9711872719525547
0.9807991153910468
1.137587320607681
1.132339728464711
1.100079548813676
1.110042896124538
1.096689469032584
1.116600448459292
1.139051430353704
1.142971633150651
1.123706052991997
1.130428635304613
1.121302081789642
1.112967657843276
1.146745514910548
1.144031817927967
1.14934165222963
1.149010985980898
1.147433291630723
1.19507762457377
1.158429945900883
1.153236826939028
1.120365994674157
1.130313576967726
1.170610974810893
1.135923378895935
1.168920633399867
1.134241601846245
1.165180272803456
1.167114467823844
1.131120456665993
1.103607055954318
1.134777460923071
1.141637725459448
1.106782037780946
1.138277653833554
1.127338824745698
1.172180852027325
1.140489950894729
1.173640854968342
1.14174727217136
1.176228815724393
1.174987174635886
1.144472024514166
1.151132911650077
1.141822772452177
1.133544707541138
1.156142842682971
1.126123436537012
1.15860922776781
1.163123745355434
1.128275592688366
1.160931039049403
1.153540823099728
1.118608628320492
1.15078621667953
1.144835937442156
1.115945018027157
1.147890609041883
1.167761404161599
1.165083648098175
1.16004115019653
1.163917233853278
1.168517547550671
1.180159404143544
1.145922732574348
1.179326399770011
1.145051644206966
1.177362632584677
1.17839604230629
1.182863835733972
1.149600511867692
1.183125010106953
1.14976600772774
1.183300720942878
1.182513618061713
1.148570875968121
1.18206927620984
1.148063502607264
1.180892665356636
1.181529942065683
1.243203526198623
1.24136539490725
1.199416803091114
1.203573591352146
1.22738652396476
1.230094701320867
1.224518910902538
1.221478282542774
1.253558468220552
1.252657834339705
1.244911111569214
1.246495585033132
1.237287879643318
1.239396439751226
1.211298255550772
1.207528264298555
1.235039759902782
1.232641825384549
1.214872545789705
1.21826792993908
1.250531973123847
1.251650228860553
1.249302685780695
1.247957380746326
1.165126808485708
1.113018597875936
1.161031061870835
1.210910627815384
1.156870923725847
1.209191018156246
1.155019899837553
1.205280389404376
1.207250091683893
1.169313265120178
1.123715713098775
1.173105047035528
1.180409140252189
1.127230904520942
1.176945014814538
1.195807697967896
1.146742547158228
1.198326936150987
1.203066908217285
1.14911278320978
1.200831021306115
1.192994020448691
1.139289283257101
1.190174078018918
1.183895595325836
1.136351005349383
1.187032083506517
1.220889989819333
1.166994904988761
1.220044128215308
1.166036658787928
1.21799884852649
1.219048149822027
1.21259549606031
1.161388154403094
1.214079567250741
1.162771620160502
1.216784292568863
1.215523000251744
1.169099375748823
1.221674993723361
0.1834050470601248
0.1748518591340936
0.2171268758947531
0.2201617430490601
0.1853810065811572
0.1939950546371977
0.2294597781529836
0.2249105370966173
0.208052544943557
0.236223873401348
0.1983445235309932
0.1790734398694912
0.1889246525657909
0.2235980243538976
0.2199464261227906
0.2320918182554154
0.1972335940209579
0.1902886299634236
0.2275741323975232
0.1809464967508774
0.1878908546341481
0.2212148537220409
0.2251387668416738
0.1765162652129357
0.1807047117634738
0.2187330061261439
0.2161649666513587
0.1714435964457174
0.2129321910027218
0.1748956414511406
0.2157309625472693
0.1757595344752787
0.170499424738177
0.2131534491959677
0.2140492808556936
0.1687251232693446
0.1713011434894247
0.2112536570802019
0.2116978039662617
0.1739026418644554
0.1718296393815398
0.2124971438316402
0.2136539872037264
0.1811358197121524
0.1758995571816059