/*--------------------------------*- C++ -*----------------------------------*\
  =========                 |
  \\      /  F ield         | OpenFOAM: The Open Source CFD Toolbox
   \\    /   O peration     | Website:  https://openfoam.org
    \\  /    A nd           | Version:  7
     \\/     M anipulation  |
\*---------------------------------------------------------------------------*/
FoamFile
{
    version     2.0;
    format      ascii;
    class       volScalarField;
    location    "0";
    object      p;
}
// * * * * * * * * * * * * * * * * * * * * * * * * * * * * * * * * * * * * * //

dimensions      [0 2 -2 0 0 0 0];

internalField   nonuniform List<scalar> 
12685
(
0.1363177271562023
0.1339051836502296
0.125788526568994
0.132593295290656
0.1220192918801266
0.1367934927858069
0.08000180274895173
0.08001807324279087
0.08031993617991971
0.1907003393029194
0.1357062802495888
0.08019450667234021
0.1890100492736748
0.1349195210953099
0.1858889017838042
0.07956696962218097
0.08011171689086502
0.1883086703022257
0.0741987059796677
0.1746643125028569
0.1286760612918216
0.07722880984023278
0.1799021119398639
0.1848862511977606
0.07928947643813469
0.1308908972574011
0.07789088089544616
0.1813692041467489
0.07281541626017277
0.1724652587574573
0.08031363850054735
0.1911912806494994
0.1371636068854905
0.08026055251500569
0.1923618838643467
0.1376726160598301
0.19346985559332
0.08012502825468097
0.1374506837195672
0.08022379464485151
0.192696319266564
0.1380744321438296
0.1942493259860733
0.1378439609764616
0.1936808812998699
0.1379769099788808
0.08009015043183297
0.1941390253004286
0.2333159311024282
0.2321717727903276
0.2296203638579981
0.2309445765363408
0.2213240630365595
0.2192611329489727
0.2170410382952262
0.1398408946322499
0.1646149899430052
0.1214605273237604
0.1644482874724256
0.1213988359302664
0.1399474663474315
0.08345158322643088
0.08340958416911567
0.08327245778113153
0.08336320226143455
0.0769697164336427
0.07821974834940613
0.08009448401742592
0.07921557381449505
0.0755558362567767
0.08346126423260544
0.08347152685883555
0.08344990370260714
0.08345878779560995
0.1379854400372452
0.1198378046009958
0.1613009957466377
0.1201012832522677
0.1617882849798518
0.1376262104649987
0.1383013741469431
0.1205446327261913
0.162610590463492
0.120346775167978
0.1622125685508901
0.1385850361552459
0.2380005201148678
0.2387467224047504
0.2371948381871715
0.2363286996516564
0.1811017262071783
0.1816821434184264
0.2185394910672008
0.1971986118831628
0.1966591541995865
0.2191897908089776
0.2178286414913407
0.1954147646987383
0.19605582748787
0.2170655024323453
0.1826916995974738
0.1822079565109313
0.2343893995016252
0.2353946748037631
0.1804707039181042
0.1797747820051497
0.2143693811892527
0.1921893426233054
0.1930898717146327
0.2133322244416797
0.1781831975621631
0.1790181528233441
0.2153392655204017
0.1946984572670577
0.2162325576422337
0.1939379519319392
0.08255971429014021
0.08282410803398861
0.08317019999029551
0.0830079454236456
0.1367681208001743
0.1195132205039548
0.1607805316087459
0.1372239902524044
0.1601833035819534
0.1191625966449609
0.13625480896172
0.1588095142634185
0.118266841156354
0.1595437962764756
0.1187334290072008
0.1356742535346314
0.2281946022165441
0.2266596888547327
0.173923170581621
0.1751531868936536
0.2109840373316957
0.1911815189024146
0.2122019731333234
0.1901053763525989
0.1772714591648711
0.1762611577997007
0.2096526519354248
0.1876038594137343
0.2082168258573276
0.1888970739186092
0.0822596030097206
0.08185178081101187
0.08078237783410401
0.08138883595970814
0.130133010434379
0.114494587902221
0.1537586252738191
0.1133915401333366
0.1523367195913706
0.1313685360667299
0.1287067639521902
0.1105961284046159
0.1489907193473337
0.1120641936979426
0.1507845785408441
0.1271058085166874
0.2232343442167326
0.2250108577887952
0.1725701762321647
0.1710648697077766
0.2030940086326673
0.1809319601131255
0.1828284633730621
0.2010790099045539
0.2049514261107423
0.1861496828060296
0.2066476139349603
0.1845887642304027
0.1675477908339121
0.1694024620198748
0.1334236082893452
0.1154946988928615
0.1549910317859108
0.1561251654085707
0.1163230352883142
0.1324667858924614
0.1342723202735992
0.1580191309551634
0.1176985066935332
0.1350159638047985
0.1571094427547202
0.1170768307523573
0.1088344793956887
0.147024705405827
0.1252478650705869
0.1787865897067599
0.1988679309811276
0.165491487109452
0.1392537251559964
0.1211307569936933
0.1638278954504133
0.1210193634427286
0.163563950231888
0.1394306074694261
0.1390580108094366
0.1207303386279036
0.1629568055931915
0.1208789318093944
0.1388336833028671
0.1632819447509361
0.240078829159203
0.2394374519532211
0.240672219446922
0.2412118662412661
0.1842277110444341
0.1838956401364962
0.220347323027281
0.1977058473632849
0.2197943605081556
0.1981590256393999
0.1831295547259171
0.1835322812386343
0.2208599499454651
0.1989599361694234
0.198583741647728
0.221322692654797
0.1852491830323366
0.1850341274206622
0.2224706553523919
0.200145158499867
0.1998989113028189
0.2227776573284268
0.2425455820874546
0.2429079665932112
0.2421419947683624
0.2416993695646854
0.1845247069917479
0.1847944594026149
0.2221244869427795
0.1993087982242981
0.2217452310767212
0.1996158124916869
0.08335570125267461
0.08337772921602994
0.08342527410535065
0.08340649978322792
0.1397221591827288
0.1212365259896341
0.1640553128230339
0.1395837743301146
0.1642670699576501
0.121319728541808
0.1403119886464181
0.1216613312165708
0.1651396851655664
0.1216812084074962
0.1651926282480475
0.1402782677523005
0.1403349903444175
0.1216960567156717
0.1652282500679335
0.08325389757484777
0.08324445670114043
0.08323830548361524
0.2441891382953395
0.2440754956101248
0.2442658426016216
0.1859402610531436
0.1860090319798523
0.2239428680899115
0.201088714951036
0.1860555279715873
0.2238758351670052
0.2009540975444476
0.2010338365704646
0.2237775420995422
0.1854359516964228
0.1855986762549344
0.2232808165508463
0.2003662801920926
0.2230492666526824
0.2005529106189354
0.243494716493098
0.2432247013416914
0.2437252850311835
0.2439198719728875
0.1858498532669715
0.185735346105939
0.2234796363261322
0.2008469239833127
0.2236445037498027
0.2007145719411697
0.0832687236077965
0.08328515715994578
0.08332827555744801
0.08330746968034833
0.1401160535588807
0.1647552120227357
0.1215183848610406
0.14003714105598
0.1648805219350034
0.1215631289089847
0.140180521465707
0.1216349568859709
0.1650710047983699
0.1402354528129614
0.164983358916128
0.1216035493154863
0.1179219624228593
0.07999190231391472
0.09870062799829889
0.1003779935615688
0.0987051132666857
0.1003814567144495
0.1179041414109409
0.1178515751854366
0.09869163838446515
0.08003693536561095
0.1003734080862783
0.09868859357107965
0.1178776785012391
0.100369069687724
0.1167560951424311
0.09838846614519423
0.08029483963624889
0.09999306562882816
0.09988444208809769
0.09829935950711424
0.1169293435720712
0.1564860399568881
0.1728455848643358
0.190198612711627
0.1751786573546472
0.1724180524425099
0.1747376683733826
0.1568561324276237
0.1165246360242063
0.09958244387124736
0.08026622425188956
0.09802156475995541
0.09974766893150405
0.09816558498224974
0.1162875418169394
0.1560970400400118
0.1737095690692042
0.1896112592494616
0.1714108276708101
0.1719321383368026
0.1742437616063796
0.1556400746629341
0.1539921542122105
0.1686868238377091
0.1709597444558469
0.1867517941300553
0.1717457421285195
0.1532906716819739
0.1694659252485144
0.1152415707736755
0.09697561666182326
0.07980789774579956
0.09848628245210549
0.09730609982263237
0.09884029660156679
0.114802730326466
0.1156549145810387
0.0993794517685294
0.09782104231952006
0.07997066665880223
0.09759918154275588
0.1159780278152327
0.09913502037893278
0.1545923257747484
0.1731132256171187
0.1708204808488086
0.1875887697937698
0.1551574652361242
0.1724659478797974
0.1701842140710184
0.1087385349179106
0.09051768861794533
0.07541345261846331
0.09193940795169445
0.09330255486425489
0.09185882077985244
0.1072833837195582
0.1455106145507358
0.1582203205814425
0.1765655340803465
0.1606263727459198
0.160087871048494
0.1624586585091767
0.143739741456329
0.1100493440868833
0.09543141016763559
0.07638147752127988
0.09396710157204093
0.09444351032406531
0.09300257468199376
0.111132142085301
0.1470292733239146
0.1655539251051402
0.1783559536729437
0.1632394735707812
0.1617524513455545
0.1640851308384723
0.1484224508125165
0.1516636060987391
0.1678087505655897
0.1700855282728004
0.1838444418334138
0.1525402466258207
0.1668484257210558
0.1691234018604566
0.1136561026571467
0.09655532840234164
0.07890755054300799
0.09806539854777918
0.09607481850725626
0.114250773971519
0.09756078611726139
0.112919070821728
0.09625782142987556
0.07846878434135147
0.09479536318363448
0.09548111393688903
0.09696767011949402
0.1121154693692758
0.1507191899140207
0.1668687425936596
0.1826348104902597
0.1645766197225102
0.1657679906046279
0.1680540922135762
0.1496170518765327
0.1035889132248421
0.0889521322580113
0.0903765389252037
0.07110393615982735
0.08850998022879743
0.1055380631876798
0.08710564816699072
0.1395396467725901
0.1561369607084404
0.1586020879253478
0.1701141888292265
0.1418005894620016
0.1537792676270513
0.1563029438495727
0.1172283483270945
0.09847487448847497
0.1000827667748556
0.08030906873036935
0.1001517641003013
0.1171022005697344
0.09852624137423784
0.1574698708660204
0.1732453782697231
0.1755875543489716
0.1916090641504282
0.1735956184545407
0.1571700794709621
0.1759513612916752
0.1173572089305559
0.1002506666225142
0.08028222105408345
0.09860621883357158
0.1002087206937886
0.09857981219715725
0.117448673354743
0.1577229126977146
0.1765865012096828
0.1920173018069047
0.1742083830587667
0.1739233164582775
0.1762887330257641
0.1579645295160207
0.1585199030023819
0.177513249851828
0.1750980503080955
0.1932461721368739
0.1773224595968939
0.1749162159428485
0.1586711859438784
0.1176808516714266
0.1003434157166119
0.09866932655262917
0.08015555560206947
0.09866645555804421
0.1003301270165377
0.117728538094432
0.1176103601648059
0.08019430470314558
0.100285446920533
0.09863775502308783
0.09864875696240957
0.1175442895379075
0.1003096592731109
0.1583596748300029
0.1929763953450993
0.1768612449513456
0.1744741626553453
0.1581669159270645
0.177101752201801
0.174703580328382
0.1179365487378422
0.07998463374637393
0.09871024579782824
0.1003850867443092
0.1592045852367634
0.1757294687109159
0.1781442690249536
0.1943299143207596
0.175797835586077
0.1782075728366354
0.1591521697242796
0.1589103200709561
0.1776849453812549
0.1752644477330028
0.1938532461679608
0.1587953991574079
0.1754053864737057
0.1778297663504415
0.1178145160014187
0.08006356975685962
0.1003551274692616
0.09867958867395314
0.09868024728882122
0.1177798279663062
0.1003622290133371
0.1590035910234038
0.1940114420380911
0.1756386313495247
0.1780595000027455
0.159087003313509
0.1755323361611257
0.1779561337826128
0.1644833351011694
0.2146395094947187
0.1207458561911728
0.1393587078720167
0.1019677238545541
0.1045493768021522
0.1422505555701311
0.1180489058855087
0.1231690156212008
0.1068836628910456
0.1447497164186365
0.212056712980981
0.2092625586558878
0.1577792984331134
0.1606370103896948
0.1964616729332935
0.1764684215080319
0.163192635363787
0.1938190216878041
0.1709979433249554
0.1909384301495258
0.1738403184446312
0.1370578922217964
0.1508794325962112
0.167399740926622
0.1481767518232247
0.151162280643309
0.1537733770069908
0.1341659809530386
0.3473290235230685
0.342675196185068
0.3398180409014078
0.3400432288557934
0.3477039772490779
0.3224193469353244
0.3215534849218915
0.321459560387027
0.322492777154431
0.3382005259133268
0.3393067691989534
0.3393032466100072
0.338126360034277
0.3197787381863587
0.3206963305689339
0.3205803998700863
0.3199187913158146
0.357018249064379
0.3569138998038547
0.3558835982995027
0.356037015638745
0.341753528739274
0.3405034635235788
0.3404410781079581
0.3417652691339869
0.3280333442436208
0.3292596925120576
0.3292758140757408
0.3280291714994984
0.3318259342777081
0.3305109903369793
0.3305382988219639
0.3317870847078599
0.3174424683371196
0.3177317301037871
0.3510278040241903
0.3499357388860876
0.349848407643978
0.3510588380538247
0.3478075482236475
0.3488455319030196
0.3487955061501923
0.3477743800712952
0.323441013888443
0.3245616230402533
0.3245237485508201
0.3234959555790872
0.3370007622356103
0.3356480297715502
0.3357280570506229
0.3369094907129434
0.3190760207091498
0.3186692895306135
0.3184754212407165
0.3192418742698326
0.3549530051691896
0.3541391247865722
0.354103546903813
0.3550757794419812
0.3430996397928593
0.3443051281932191
0.344396596726781
0.343046379227148
0.3268252165898387
0.3256728392143549
0.3256502377523598
0.3268336901041666
0.3331241492629072
0.3343667462637051
0.3344318328993132
0.3330731928532398
0.3176464708171004
0.3182229844522139
0.3179994283715106
0.3179019792078533
0.3521587793047172
0.353176674295429
0.3531909046856234
0.3521491833218617
0.3467486244401739
0.3455132835771346
0.3456059778823735
0.3466719770742742
0.3579529171068238
0.3578733190741867
0.3587542172513125
0.358829368605977
0.3564568443012268
0.3503049654403989
0.3549216251647917
0.3522443031241962
0.3687180212575082
0.3686745571191952
0.3682229393848709
0.3691553377362342
0.3672714573074093
0.3681505317155873
0.3677127728087258
0.3676389909657972
0.3624534773323257
0.3635004174713989
0.3632630101695355
0.3627265167679044
0.3646172941776323
0.3642052196896883
0.3639721727374093
0.3648510687061257
0.3690997403442343
0.3698847768468931
0.3694427123398918
0.3695474145145062
0.3595621607721824
0.3604406089505218
0.3603193472411921
0.3596538434339253
0.3668212904218517
0.3665990513182987
0.3663234511321505
0.3671300389102919
0.3700340100603027
0.3701971958672739
0.3697542889495097
0.3704956910435799
0.361691366673552
0.3611943481977971
0.3610165976462851
0.3619465070531905
0.3652159235374648
0.3660427702334046
0.3657867426420763
0.3654588782332565
0.3519735326771445
0.344980458202874
0.343495457961764
0.3470044905203808
0.3389392357598591
0.3370865317049365
0.3485716789142332
0.3619222179578198
0.3562043066467365
0.3522309750467117
0.3573428185874469
0.3536033953551675
0.3526061301033987
0.3583540809234483
0.3572037625794333
0.3710433917308022
0.3713793224748113
0.3708086059601558
0.3716108781852574
0.3702783747815269
0.3710826839234929
0.3705200841970829
0.3707853013036206
0.3711758640139831
0.3718542212903704
0.3713007452003601
0.3717521319512693
0.3577772095791708
0.3639304865028679
0.3563836788372607
0.371487576531181
0.3719456623058431
0.3714091794758216
0.3720297030978598
0.357607318856476
0.3297905490754591
0.3368252844664136
0.3322469017824321
0.3351050034622011
0.334071706332307
0.2668296229891844
0.2764352133462126
0.2682763011969077
0.277313319249713
0.2293415374545427
0.3009109795234056
0.3004726735110401
0.2944226662637991
0.3450912704479757
0.30162363835574
0.3461980477291174
0.2993540871154844
0.3439720223445427
0.3421006065318662
0.2954014818832282
0.3380471894367075
0.2972279685569251
0.339704772341212
0.2296201827176045
0.3468454848675527
0.2636324558660568
0.234325835572334
0.2314902770790359
0.2538636806354493
0.2600468130694694
0.2222156489683106
0.2282042482645399
0.2744581478219952
0.2423492691665852
0.2407581237435641
0.2709742432770726
0.2355898179922796
0.2378786470600073
0.2516008088740209
0.244078482017051
0.2199446221782811
0.211760869222388
0.2789198445225652
0.2430584167783514
0.2443168614572397
0.264246932837427
0.2633585327132561
0.2286649189927069
0.3012865768597373
0.3168849409524206
0.3175114984859999
0.2999521451559659
0.3165901173783385
0.3162700094512181
0.3097393672115654
0.3086806132503377
0.3225549557931905
0.3214548459099013
0.3074123447098476
0.3183237816655297
0.3202599432440353
0.3455271935302934
0.3301840317513343
0.3310682888573467
0.3182169225381578
0.3019270697256773
0.318062419405854
0.3317366279007725
0.3455411883623688
0.331574651372818
0.2986872345307726
0.3146682176012843
0.3156309203310782
0.3428094135766964
0.3298188488249961
0.329405554650753
0.3421821026297678
0.3280012002173364
0.3288360121068757
0.2963481292465555
0.3110454316394359
0.3122432954796006
0.3385127639100514
0.3241873818565464
0.3252419158786057
0.2979901142918105
0.313665771828714
0.3130005161383455
0.3412547097550817
0.326693795348294
0.325927672487087
0.2833399887945756
0.2305212157851897
0.2646160278756306
0.2828638045645162
0.2300794436742958
0.3182883869693093
0.3021575477579277
0.302317667306274
0.3186661774207341
0.331757139198987
0.346874915131369
0.3323055352458724
0.3466494299614202
0.3325683435480353
0.3024239782027018
0.3189617635371973
0.3142182898333372
0.3210624658687817
0.3316933209772606
0.3234389466879873
0.3121270922795088
0.3073209188922056
0.3349060946698468
0.3216596087412537
0.3227430829260681
0.3382489106852187
0.3357193731282265
0.3196761363072609
0.3180449084314072
0.3279220083902818
0.3255029706742758
0.330454417325676
0.3343963779286188
0.3158475537858603
0.3175154640414235
0.3179059823436691
0.3164232653759888
0.3200787833456457
0.3187248626483889
0.3247999944347646
0.3236166320052515
0.3353313672034396
0.3285229408107348
0.3339598039356876
0.325850813541967
0.3272750080177838
0.3298165045308841
0.3169157919925317
0.3102425065284803
0.3150614329415641
0.3085968938736616
0.3119805569549975
0.3128788189360868
0.3387345886260922
0.3356853946577337
0.3218729720442407
0.3149120318994388
0.3060485075348324
0.3127132165351271
0.3039220595096014
0.2984265799411647
0.3250238260967088
0.3192850238434512
0.3170757757307624
0.3082553756044569
0.3104798883337073
0.3018925170974146
0.3000510480928988
0.3271660375855374
0.3280566259882963
0.2838972618897495
0.2704852088751595
0.2682458127182863
0.2854155903837187
0.2749446249235168
0.2619107204067881
0.2764130144668003
0.2596924839630401
0.280529343115791
0.2635667167757289
0.2884077761537748
0.2922027256892933
0.2716829729304799
0.2660970442039391
0.2792229901455592
0.2550151303503871
0.2822582177260958
0.2982581620877781
0.2967553640272327
0.2726764987509046
0.284621907520537
0.286837842062817
0.2659108587912608
0.2823976391395445
0.280129725130719
0.2869181270316998
0.2997866248931687
0.3017192856527043
0.2733592032435043
0.2640541431299047
0.2778282832719562
0.2573793768535019
0.2786978043854239
0.2930743630022625
0.2949863120224667
0.3096154226821318
0.3079540428332317
0.3041365841147057
0.3061267226891276
0.2747650499281786
0.276783483532165
0.29107499041518
0.2889808112716802
0.2955740934598525
0.2977663071656361
0.3020682625423139
0.2999286283319271
0.261145739946389
0.2757061443054294
0.2779151138332911
0.2934168918195058
0.291284470733422
0.2873682861061795
0.2892716047320145
0.2897939010828481
0.3047845776347761
0.3035113921842625
0.311650413041093
0.3141714211743304
0.3169091931676659
0.3157750871541407
0.2910272777102291
0.3059451394207728
0.2699126056553784
0.2680545425872001
0.2805448055491685
0.2817398935034578
0.2525735948165956
0.2611469701145362
0.2597480354284261
0.2470378489089706
0.2447743288733683
0.2910910212762431
0.2906624043731661
0.2849486808715357
0.2917528394566203
0.2858691536446787
0.2875896653157173
0.2689818832799747
0.2112807440334309
0.2092827217956947
0.2637411729970217
0.2057270689876827
0.2084936717451974
0.256640393209344
0.2046333339760212
0.2007678943234019
0.2512146035160751
0.1937072488479128
0.1992173564912911
0.2398607941139737
0.1914625568875641
0.1834400663163465
0.2698214636266352
0.2713561063095394
0.2118457443362133
0.2132661394734685
0.2146108443517825
0.2741266185236427
0.2136574031631877
0.29144157365016
0.2901533903847433
0.2933656092202468
0.2839462145493339
0.2828574536290421
0.2920419026621093
0.2895872235148506
0.2889759350453473
0.2867537285682504
0.2883244215752281
0.2155444477096323
0.2148607284971201
0.2745190337610625
0.2751283668538292
0.2154175832439477
0.2922671473630005
0.292412550623154
0.2925081628138247
0.2624708123071112
0.2440071889942866
0.2452229464850387
0.2582422097784474
0.2427132374556202
0.2413154149899301
0.2491901944100681
0.2305825480317135
0.2326983747440189
0.2423718649946011
0.2283313040869262
0.2258998793520644
0.2680724306009709
0.251053211160017
0.2502461267178015
0.267093110289701
0.2660582030033206
0.2484469913489791
0.2493783397687928
0.2307873701384571
0.2106708115904772
0.230078893846436
0.2284957648338286
0.2100021217919604
0.2293230341337271
0.2649461483739887
0.2474469957992681
0.246367483704471
0.2245214066214561
0.206719387589978
0.2256319695397919
0.2276150538484454
0.2076472633204865
0.2266510131021351
0.2549355895417201
0.2382141175501125
0.2398213595622895
0.2233442298459506
0.2034605581277789
0.2220496153829712
0.2191606122954798
0.2021605435586427
0.2206740976423102
0.2531325605004866
0.2365025505336368
0.2346601312139728
0.2118196067063063
0.1956976561996133
0.2139029819521948
0.2175549735924683
0.1975573073157762
0.2157834992551355
0.2372053079762903
0.2205318636590932
0.2233193147091296
0.2096073769396233
0.1890633335824773
0.2071465142260569
0.201624644975357
0.1863401759924334
0.2045371173387503
0.2706138569562088
0.2517986570728535
0.2524955965952564
0.2720237147761418
0.2537280190498065
0.2531409372118633
0.2314328292585265
0.2123612013894864
0.2320377193270737
0.2330952839222982
0.2128362907635395
0.232587846557313
0.2346763808877088
0.2143277409949799
0.2343383046583623
0.2736696593824767
0.2555728431060173
0.2551764509633453
0.2731646609265108
0.2726185214792323
0.254255531411077
0.2547368841496239
0.2140093460971799
0.233548873038202
0.2339652021039862
0.2757167456625836
0.2755794523913933
0.25684508880747
0.2569684574890182
0.2758079090103856
0.2570512596886763
0.2157039043189402
0.235951224791407
0.2357695142944049
0.2156396728149706
0.2358781378891826
0.2349698644767615
0.215076457183453
0.2352244589169569
0.2748453750545304
0.2559171897080649
0.2562097291627979
0.2753795382383793
0.2566740891478242
0.2564599931471878
0.2152620192493344
0.2356229904712653
0.2354404534514682
0.3561313346477966
0.3546513639103127
0.3551437854734837
0.3539383374212909
0.3544592563410483
0.3529303289040316
0.3536252776097356
0.3537789499657187
0.3395187027827936
0.3403676167271267
0.3412876864563832
0.3416744951270463
0.3427748749980443
0.3433518693338131
0.3442158416109759
0.3504365891124283
0.3484168674744135
0.3492354721719997
0.3492994585777866
0.3517009363448775
0.3518390882749458
0.3528546310113523
0.3504340187404238
0.3476915008050853
0.3480071507132907
0.3485084921401687
0.3471657369818308
0.3466558436358168
0.3447979169117849
0.3454934883808913
0.3460513661437315
0.3569253490731528
0.3582028795073469
0.3572088615803595
0.3557107383420752
0.3673830918711627
0.3650183259095305
0.366924802802183
0.3653467687840242
0.3666911870709696
0.3678896618075978
0.3660043303440402
0.3683634211767574
0.3587170661914237
0.3579078840997753
0.3590602381609116
0.3598169811216439
0.3663823118940689
0.3650667373737402
0.3666278828719718
0.3649646610580902
0.3660208003788138
0.3641710917964951
0.3646358339272633
0.3655567267457596
0.3671509637185023
0.3674470286956565
0.3690095841511798
0.368734151926901
0.3614613373503387
0.3604431480433118
0.3599019610583072
0.3622223807209168
0.3593647528778576
0.3609338924106999
0.3604512035060581
0.3597578835014389
0.363798879655728
0.3613117255710166
0.3630411822128928
0.3622775594768539
0.3644507457064562
0.3636386257900119
0.3650320354769177
0.3630291252302147
0.3695586839628917
0.3672741792016765
0.3674294461808247
0.3693427409283838
0.3683926322410507
0.3701081508922991
0.3698354089048842
0.3679186670586646
0.3675785902275857
0.3691781662360184
0.3674758606623986
0.3692419146710539
0.368721491591584
0.3703600961346143
0.3686388069716966
0.3702831269067837
0.2652768315208139
0.2506104853725284
0.2491508976771918
0.2754854175997155
0.2594354960408297
0.2585823990848705
0.2519797933828629
0.2696497804445567
0.2532569709195482
0.2602342542750249
0.2781408657774169
0.2609704883612614
0.2465940719778265
0.2290178137379542
0.2462288648856543
0.2469183198356459
0.2298689861268119
0.2471963135626605
0.247583814675037
0.2618852549538872
0.2459153307894981
0.2329517271048465
0.2183053904975786
0.2170101129762821
0.2298933833832514
0.2156379380738266
0.2141130661298255
0.2560438165672386
0.2380277814033085
0.2402016408430824
0.2441326174744476
0.2580907343774224
0.2422286301835213
0.2243887157385805
0.2066325283850702
0.2087738156622358
0.2124943026306984
0.2263450685129466
0.210692147729143
0.2576540272320169
0.2733834239744289
0.2566727677930707
0.2415850487483027
0.2256114233429927
0.2249205256475555
0.2233800732572601
0.239868907422415
0.2241907973061843
0.2544733866100655
0.2722275539315894
0.2556081454097553
0.2367761910368981
0.2194723745552047
0.2205776463897117
0.2225248379449047
0.2389112650554327
0.221576409989044
0.2357256054395871
0.2491889729885331
0.2332452715594918
0.2278181597917948
0.2467154149380876
0.2306395272232186
0.2043482487254032
0.2173954933286498
0.2017909115816888
0.1959956984978202
0.2147574594744723
0.199061325615224
0.2616614503118884
0.2796153786292943
0.2622816850771172
0.2437116486998789
0.226231319330158
0.22681715121478
0.2278300545188567
0.2448653184794535
0.2273402054229256
0.2638294110451084
0.2818159967365249
0.281340561207592
0.2808110676973475
0.2802386645632974
0.2628485689156705
0.2458172853969267
0.2282627152684642
0.2453663087353375
0.2834838489444051
0.2656159454899804
0.2657514935517556
0.2835791247346607
0.265842420956343
0.2305947688217915
0.2480153367740088
0.247808212066824
0.2479320215182538
0.2304083339783423
0.282226542829349
0.282566522828112
0.2649271645828015
0.2651981105985124
0.2831288522992217
0.2654288080822526
0.247438008286187
0.2476412699238702
0.2302615115752049
0.3221949773562833
0.3206368677499958
0.3212016485805765
0.32324566905135
0.324354633561559
0.3238711735218164
0.3380105889038091
0.3392024065936129
0.3390552469508494
0.337031461765495
0.3366928566039932
0.3353292133053016
0.3202858779260194
0.3194428877666493
0.3187924747027528
0.3186951117677791
0.3179852293033361
0.3172824857354685
0.3274809642060048
0.3291794861366486
0.3287417571491769
0.3250402685977868
0.3266978028200836
0.3262451881148755
0.3300215560363546
0.3313241312380429
0.3317557685646347
0.3339821001834924
0.3326428462558811
0.3330681971958863
0.3168378813050193
0.3166796763296296
0.3162036685872018
0.3171044463320351
0.175843670518437
0.1943861161135915
0.1592379327763593
0.1782512808467221
0.04809077387939065
0.02927027919526811
0.117101080604911
0.06678813258111611
-0.001230690182831029
0.05205819871705602
0.03262928350256683
0.07380422960420042
0.06940711573455731
0.02905448432867341
0.05022550354767633
0.03097197819810951
0.07182889930588822
-0.003861736327695287
-0.002347915803910089
0.01258318807650267
0.03119547580190444
0.01432838857983101
0.1012708980566448
0.08385158445227532
0.06916343114358119
0.08246351629593207
0.08638636788183474
0.09867360921159959
0.08498130731054192
0.05903633232527
0.05919295192451358
0.05481295313930404
0.05733998677197435
0.05355160090212824
0.03412516620112348
0.05895386432339862
0.05868565011855188
0.0590134773831753
0.059205256057652
0.05884835448769687
0.05787749517289262
0.05834030044262813
0.0585917440414435
0.0580571416822503
0.05809661802521646
0.0582658941486062
-0.000328070423101133
0.03737914370309208
0.03784740936840403
0.03521357044547319
0.03720043972919265
0.03721821847387849
0.05910315699702238
0.03738434301060387
0.05916026020793574
0.03767307367868594
0.03752812495941045
0.0350100107350698
0.05582995332057684
0.03583100742514751
0.03700457013056865
0.05667182113705884
0.03651852843762466
0.0339142714345777
0.03705939822631388
0.05886930705992494
0.0368881305014645
0.05877585450624873
0.03656373014664653
0.0367283830263398
0.03814982692722042
0.0379552306785972
0.03810248644913831
0.03759501079811442
0.03796394379054066
0.05912302692867882
0.03793419217842009
0.03778266212882686
0.05918172551857825
0.03788471793721994
0.03791820774506502
0.05861260743990086
0.03783586667554849
0.03739944096341623
0.05829334064504879
0.03764751698302634
0.03614400967043872
0.03656461242453185
0.03722171902357586
0.03671409818746647
0.03603287771959898
0.03600176799701028
0.05841793041418095
0.03613011844633858
0.05850470011549716
0.03641333742186688
0.03626382023847173
0.03556649456067066
0.0580296335284897
0.03552239416657537
0.05801144275667566
0.03549462850994171
0.03562525803092331
0.05814356548857162
0.03569987515145003
0.05820199055237184
0.03588975996375662
0.0357867573326707
-0.001755121987048184
-0.001414769725594795
0.0002883981554638587
0.0007540950116931447
0.0005434614430070472
0.0002678984404939983
0.0007993874741247526
0.0009888173981477621
-0.004032576385719494
-0.003815027286874433
-0.002096045389151353
-0.002419362906636655
-0.0007199269268904445
-0.001062048864833043
0.001174598047380805
0.001015455977057232
-0.00037283697412148
-4.97913631558962e-05
0.001189794074155706
0.001139006469270933
-0.003313578390432119
-0.003572664478678255
-0.003030933523597602
-0.002735756277285607
0.01681108913017048
0.03283772406513956
0.01570070593438449
0.01773189881998484
0.0375526327016099
0.01799001045010205
0.03769480148212976
0.01848503126647136
0.01823659032505856
0.01765912306658059
0.03603341977267816
0.01831080959646398
0.01910694064727874
0.03671813335582964
0.01878134282507464
0.01926766191692361
0.03811265883110662
0.01911108162687481
0.01871174338128086
0.03806498513526504
0.01892892311280137
0.01937179446204445
0.03802688434010989
0.01942795532286546
0.01931057503615681
0.03783753270334107
0.0194087782050733
0.01597529606959421
0.03627672215148735
0.01615118407672856
0.03640967990308486
0.0165458879092561
0.01633795049580207
0.0174836417369638
0.03704357571760458
0.01723172984487086
0.03688497674274643
0.01676104491065762
0.01699515727467678
0.03592704174505951
0.0158217559283815
0.3514709883857667
0.3523388477502648
0.3501763514377488
0.3492534251868637
0.3503250337901649
0.3490112152781901
0.347215018818211
0.3481706053893798
0.3404908297561764
0.3399556301042574
0.3419627311342336
0.3470098406275169
0.3459903743538982
0.3439420425632379
0.3450285418203906