/*--------------------------------*- C++ -*----------------------------------*\
  =========                 |
  \\      /  F ield         | OpenFOAM: The Open Source CFD Toolbox
   \\    /   O peration     | Website:  https://openfoam.org
    \\  /    A nd           | Version:  7
     \\/     M anipulation  |
\*---------------------------------------------------------------------------*/
FoamFile
{
    version     2.0;
    format      ascii;
    class       volScalarField;
    location    "0";
    object      Phi;
}
// * * * * * * * * * * * * * * * * * * * * * * * * * * * * * * * * * * * * * //

dimensions      [0 2 -1 0 0 0 0];

internalField   nonuniform List<scalar> 
12685
(
30.503571259289
30.48581980562789
30.44794204280474
30.47811687351216
30.43491199304551
30.50797457887688
30.4350817031933
30.43460756276096
30.41887394756932
30.58760645588036
30.49845782025596
30.41154185339948
30.57944184001081
30.49256754294208
30.5655216938064
30.39904590563692
30.40873635566473
30.57631019620567
30.36147806423896
30.52373059082428
30.45934191407081
30.37795349049694
30.54203459621921
30.56142165590258
30.39537112709699
30.46933966644991
30.38273544582095
30.54736385787114
30.35521932816079
30.51676882084648
30.42096899187838
30.58994533086559
30.51172301588581
30.42633756435153
30.59592415614186
30.5174300556294
30.6016805382981
30.43149986060304
30.51486221976524
30.42782944583873
30.59759020014754
30.52198980723161
30.60569031977173
30.51945868596336
30.60275450709052
30.52097484264814
30.43246014891277
30.60515588742318
30.63595995140774
30.6319165444172
30.62297554032791
30.62759429177052
30.59468488209205
30.58779529597407
30.58041387605705
30.525086106727
30.55974526834707
30.50100011539159
30.55855396839309
30.49985355965633
30.52625105688083
30.42454159186396
30.42225743775207
30.41715554533635
30.41979844755804
30.36661887480704
30.37254413804707
30.38325377001451
30.378078135754
30.36027214112698
30.42665758614826
30.42861286921773
30.43206380963242
30.43041291714956
30.50772095293368
30.47999871595449
30.53792499076342
30.48275900244584
30.5407930131017
30.50491686354958
30.51032944200304
30.48771274156039
30.54593996710872
30.48532720022278
30.54346141582206
30.51275290660562
30.65249778995417
30.65515155003588
30.64963992152693
30.64656817621882
30.5696557864553
30.57258391864547
30.62486434883033
30.59767652421866
30.59511643732406
30.62747348392533
30.62205482744384
30.58939755794079
30.59236012957195
30.61903516410809
30.57783873901461
30.57530836549768
30.63974028931508
30.64327217609238
30.56651441927713
30.56314815993537
30.6086076978412
30.57527013569674
30.57916879474389
30.6046332490543
30.55569189440951
30.55954539108362
30.6123235706025
30.58621943600168
30.61579532817786
30.58281361537579
30.40455421468953
30.40803163565721
30.41432061438906
30.41128260470238
30.49868636455202
30.47703779367161
30.53484841383843
30.50190961191389
30.5315514266573
30.4738647687506
30.49523789777479
30.52424913187327
30.46683719490775
30.52802314819266
30.47046922997112
30.49154859142193
30.61804161087123
30.61277096351764
30.53744986210669
30.54247194839392
30.59584592524305
30.57110378109447
30.60038519784792
30.56665160316645
30.55157344678197
30.54717263156078
30.59099718471609
30.55681644656096
30.58581730181436
30.56189661259779
30.40083825813853
30.39686719134736
30.38809450049052
30.39262612164677
30.46346741943221
30.44458924980542
30.50113147083884
30.43918355439492
30.49551479362067
30.46895646018621
30.45760028587716
30.42721488209586
30.483079354494
30.43340341136489
30.48950907669616
30.45131753350596
30.6011213859934
30.60714005790166
30.53208452908712
30.52634890398059
30.56804255442897
30.5327462294253
30.53938617355585
30.56127143239465
30.57436821361611
30.55138986771354
30.58028344083145
30.54558877381736
30.51364913087078
30.52021527769067
30.47889644536157
30.44964534585625
30.5063851287434
30.51130320800292
30.45437847383003
30.4740896245702
30.48339441251088
30.52021605546064
30.46295591987559
30.48760713517473
30.51590622246743
30.45880825326164
30.42058591516574
30.47619202508865
30.44459043183171
30.52563408420325
30.5540173347479
30.50661468683006
30.51898163884402
30.49556873333697
30.5541020863812
30.49384460412069
30.55231078499465
30.52073326891194
30.5170721082216
30.4899226537815
30.54823602165679
30.49196468809148
30.51499756040598
30.5503576186631
30.65988129406041
30.65760996682236
30.6619726626139
30.66389042110674
30.5861715353591
30.58434285812437
30.63212378410516
30.60004807805781
30.62989059446821
30.60223939516986
30.58018291262835
30.5823488016434
30.63417988553414
30.60610694824841
30.60425677104405
30.63606539768097
30.59193271011383
30.59071652061425
30.64075200995346
30.61193599703363
30.61070538150665
30.64200634581499
30.66865731192741
30.66993350872624
30.66722757240786
30.66564022473727
30.58784006827979
30.58935366909222
30.63934654104042
30.60779502702897
30.63778583226819
30.60932647531079
30.43726441653512
30.43616658302101
30.43357000347259
30.43493640257065
30.52378097384284
30.49714175704827
30.55573641629369
30.52233113248124
30.55721907351258
30.49856878338572
30.53044430618545
30.50475577704067
30.56364735782812
30.50512587811185
30.56403185837686
30.53006784587777
30.53069453487106
30.50537195121547
30.56428753881592
30.44086064204567
30.44121506128143
30.44145069126369
30.6745255343282
30.67411375785803
30.67479938611369
30.59591625273359
30.59630871779826
30.64678869301286
30.61662692834214
30.59656971805371
30.64651950268316
30.61596594968009
30.61636288040702
30.646114788559
30.59300546470023
30.59393788339429
30.64407449719828
30.61302141613884
30.64311282684407
30.61396481617836
30.67203774771013
30.67105935304533
30.67287144599382
30.67356284988522
30.5953912893565
30.59473241194756
30.64489392513728
30.6154350244486
30.64557341683073
30.61476857447185
30.44038659352897
30.43979168877978
30.43823271347546
30.43907442222222
30.52817170194622
30.56079601309944
30.50201138405746
30.52727844233259
30.56170936321139
30.50289043255091
30.52893290814037
30.50426075127328
30.56313307808187
30.52956446314887
30.56248763245828
30.50363949671146
30.4969830987876
30.43543768136428
30.46406256613214
30.46974550359349
30.46442777634008
30.4701073045661
30.49661247016381
30.49549724828845
30.46357586709143
30.43401235250534
30.46926171431438
30.46296735684134
30.49611651801997
30.46865482182082
30.47735149377927
30.44757682973057
30.41660305750076
30.45311010042186
30.45078185220776
30.44527119730428
30.4797126183573
30.53361037731886
30.55908985162246
30.58508085910059
30.56648274351349
30.55661354183934
30.5639775389578
30.53606474749223
30.47480770688835
30.44558200133273
30.41416895468487
30.44013128026367
30.44827585119404
30.44279807834317
30.4720761913195
30.53097956916
30.55838328710193
30.58236357744456
30.55109715719392
30.55396118979937
30.56128189287455
30.52814022665805
30.51836920683221
30.53748592055954
30.54456763271022
30.56936321048886
30.5483807499704
30.5146354497346
30.54124951520306
30.46264405383554
30.42744629619367
30.40250094495061
30.43273956345534
30.430951781197
30.43628372098536
30.4590517085101
30.46600506901667
30.44269299069276
30.43728161977192
30.40571713639424
30.4342174667041
30.46914429902718
30.43959652671792
30.52184503906215
30.55527569363085
30.54804129408724
30.57295264089629
30.52510807031427
30.55194397247229
30.54475089605149
30.42600976050504
30.38936732049423
30.36735456857712
30.3940892029274
30.40012566750949
30.39531743455441
30.4199009984732
30.48040197374993
30.49667541847297
30.53024949728907
30.50301580417861
30.50305100187682
30.50950277803168
30.47405784712263
30.43171654355342
30.41103592775135
30.37281723398485
30.4060545897457
30.40576238433585
30.40085029905342
30.43705622161179
30.48630050972639
30.52122880341932
30.53633217738031
30.51455264551824
30.50897230250997
30.51555925524575
30.49184752712435
30.50640254150502
30.53348805242812
30.54049553975145
30.55703750140706
30.51066443112319
30.52919426294737
30.53614204598591
30.45111067839054
30.42371656973458
30.39142684291359
30.42895319848502
30.41971608533152
30.45521161353073
30.42490618874215
30.44673030979045
30.41596729584324
30.38723477172579
30.41090216958163
30.41546361325691
30.42058517275519
30.44205249427824
30.5018733245119
30.5265295504868
30.55236248306115
30.51974401631145
30.52463781014774
30.53149591218026
30.49701274604102
30.40634811916125
30.38303525956306
30.38762599443125
30.34846994304815
30.38068845519047
30.41336358556457
30.37620774175299
30.46001940117027
30.4899044833294
30.49607475047129
30.50928926193376
30.46730250115914
30.48259526372099
30.48862342959657
30.48392353469096
30.44970595842062
30.45526661923036
30.42291320826709
30.45725969318741
30.48190207657489
30.45168024330089
30.54043045767393
30.56137345939378
30.56880247009376
30.5921076890715
30.56349403665467
30.53832912033463
30.57094705660138
30.48578645884276
30.46077710929766
30.42469578541988
30.45515965480053
30.45909427015493
30.45349220228887
30.48749347101996
30.54235717906577
30.57473144357211
30.5940979403079
30.56722890770125
30.56543767525695
30.57292056181789
30.54413173693198
30.54853144491274
30.58043617011727
30.572864186363
30.60046424774901
30.57923132369594
30.57167041771678
30.54971269020003
30.49173962983696
30.46607815962211
30.4604072365698
30.430407435361
30.45929684818502
30.46495899645768
30.49287552723257
30.49046575016965
30.42918854689842
30.46231224464055
30.45667646393076
30.45805715136101
30.48905262140028
30.46370512389355
30.54721360946926
30.59910242402128
30.57638299550252
30.56885626623812
30.54574440202032
30.57788206852783
30.57033982166062
30.49722916892406
30.43567289173078
30.46466871497224
30.47034774511632
30.55397766615946
30.5768017435995
30.5843887636693
30.60609049807468
30.57719730347306
30.58477982363763
30.55359120880911
30.5516589296082
30.58149876104229
30.5739144911436
30.60368975998566
30.55075139853017
30.57483380128768
30.58242324489077
30.49475144957711
30.43329892388113
30.46706520438185
30.46138487458928
30.46223887904908
30.49387918573389
30.46792340675527
30.5524315304324
30.60448970108052
30.57627530555056
30.58386627114954
30.55307653119164
30.57561829384638
30.58321147946512
30.49265850372159
30.57249466939689
30.42961923952703
30.45231773473457
30.39760555308888
30.40583190539721
30.46086376454448
30.42127241376591
30.43737034172085
30.41347236694304
30.468801633145
30.56398658261589
30.55482807207121
30.48223000647251
30.49095880749831
30.54623463700248
30.5180031657464
30.4990670030963
30.53787382991188
30.50098476507083
30.52887389463119
30.50980743585564
30.45224772019365
30.47202166931375
30.50128669363104
30.46639953920754
30.47482172204108
30.48063049750447
30.44383995681946
30.79503147970775
30.78577187897418
30.78231957067666
30.78545729896976
30.79744728164807
30.74217758530026
30.7390655580969
30.73827183391595
30.74297296280936
30.78244775056546
30.78568061262636
30.78484730289726
30.78326920302508
30.73003991049676
30.73502006691633
30.73422811152059
30.73083005787727
30.81520537597138
30.81434217686649
30.81294017777661
30.81380092290561
30.78943145297262
30.78801556273914
30.78716825222633
30.79028407099045
30.75981897677476
30.76380526146301
30.76300174599164
30.76062139565367
30.76905146709495
30.76688270961835
30.76607815830404
30.76985699803328
30.70668680677035
30.70746661257084
30.80511944096023
30.80424805024134
30.80339332162805
30.80597849343266
30.79978317572627
30.80246303055324
30.80162095251276
30.80061456777089
30.74595078761482
30.75039533965925
30.74959687274793
30.74674776823994
30.77995850640637
30.77818643521842
30.777376044508
30.78077286542872
30.72570098760152
30.72199031811207
30.72120405593448
30.7264892126904
30.81150018893799
30.81084610088101
30.81000291730578
30.81235050346366
30.79164388344786
30.79463166744958
30.79379655014079
30.79249051139791
30.75652654547666
30.75392040850063
30.75312051397696
30.75732774022858
30.7719241842975
30.77550655574042
30.77469848456635
30.77273080878033
30.71170558585911
30.71732603038463
30.7165418537858
30.71248764112741
30.80680426496837
30.80928187710412
30.80843709010574
30.80765763051943
30.79786854525793
30.79670092265118
30.79587313406685
30.79869512141022
30.81656638579965
30.81571095867571
30.81703569159231
30.8178796447829
30.81233085921259
30.80248428350954
30.81108723756373
30.80621441793304
30.83140938346814
30.83170901582976
30.83084018215562
30.83227962783271
30.82962349989754
30.83110794665732
30.83025032499161
30.83046911212896
30.82275601591493
30.82463001406945
30.82376285027786
30.82362092378471
30.82569255342695
30.82560439356386
30.8247456647734
30.82653921258341
30.83195942441329
30.83332624950796
30.83247639938712
30.83282069984372
30.81830126325553
30.82033968356953
30.81950308005864
30.81913843857093
30.82894667084983
30.82905082192634
30.82821586728847
30.82978483903873
30.83336189150096
30.83378891732671
30.83294551571962
30.83420503683368
30.82172165900448
30.82148383238121
30.82064167087116
30.82257496919553
30.82658884717622
30.82826510565173
30.82743010743945
30.82742740272851
30.80358689230603
30.79218044008981
30.78881022028931
30.79427022238557
30.78070894940235
30.77826906867405
30.80008066553579
30.82096622652274
30.81321411944084
30.80454249611941
30.81314409302774
30.80961216340499
30.80801411893774
30.81563484317033
30.81496725854728
30.83458283857238
30.83519194693434
30.83432131615798
30.83545404113859
30.83372551228825
30.83490109530825
30.83404079955872
30.83457457188149
30.83482611085697
30.83588693994019
30.83503661971019
30.8356877990793
30.81594425703143
30.82428087172534
30.81417925833985
30.83531171279468
30.83604411484835
30.83520004751158
30.83615571004925
30.81626475980401
30.7697880613251
30.78262857859347
30.77342514445582
30.77974509229403
30.77652977080037
30.67773749713944
30.70606987014544
30.68218372613358
30.70859182540483
30.64855714251074
30.74517325893622
30.74398928030602
30.7285990019648
30.79975934326555
30.7470631769201
30.80226522623803
30.74115346452841
30.79836009786556
30.79360122501307
30.73115203581543
30.78496320192359
30.73569497931878
30.78983769161491
30.64965936617214
30.80304773419991
30.66790720064033
30.63154870525468
30.62206901726899
30.63685211839278
30.65670348937049
30.59212113737659
30.61126343172852
30.7004092781988
30.65893373186728
30.65345380377916
30.69022810084657
30.63583930986189
30.64361237407565
30.62928631458789
30.60307810405379
30.58483482452078
30.5596223678366
30.7130699784766
30.66137749175439
30.66571593098466
30.69790964561975
30.69516893544347
30.6459096650802
30.74619451744687
30.76559873749697
30.76662293208213
30.74264638039192
30.76438760659313
30.763007650185
30.7488307489829
30.74603653171556
30.76677037530336
30.76394082331502
30.74301754636647
30.75763275036336
30.76087229059214
30.8005624669214
30.78371293888157
30.78469918810675
30.76823972286672
30.74778866499289
30.76749364351675
30.78634160125314
30.80129744047082
30.78553900758842
30.73950716674493
30.75984436905055
30.76149384190998
30.79663371255249
30.78244832157603
30.78097923304978
30.79505397675226
30.77783421294685
30.77944125763937
30.73351382355822
30.75139727414858
30.75377885752749
30.78730909669384
30.76930263263591
30.77168025268542
30.73769279411007
30.75802541726769
30.75599842685689
30.79202961505239
30.776058249584
30.77398156418749
30.72555731755553
30.65310400982125
30.69905151133339
30.72427487989393
30.65144639966904
30.76883369161106
30.74836626446051
30.74879187665283
30.76925393503852
30.78698011932121
30.80326181078557
30.78735982305795
30.80337003367878
30.78759484954771
30.7490740102959
30.76952935228448
30.72195669585951
30.7429370357296
30.76547714298752
30.74904884300856
30.7139522201133
30.68620112815796
30.76992570053768
30.73823778359841
30.74200256385672
30.78081306991914
30.77576177154596
30.73030576820064
30.71963538799727
30.75821768129798
30.75152429638591
30.76447266802143
30.7730873965466
30.70282645036864
30.71497745709894
30.72759406092883
30.72942883576787
30.73523006213002
30.73640850674218
30.74902641062451
30.74581008211626
30.7716085837019
30.76023273413755
30.76919178890718
30.75478833555354
30.75525974545159
30.76109249864686
30.72364823199253
30.70536263119886
30.71517576608073
30.69613577726485
30.69101239269424
30.70118253589225
30.77837845362783
30.77391503868155
30.75296364801785
30.73625787215075
30.70934524994402
30.73017716789029
30.70140282458974
30.67386444835686
30.75764648938623
30.74752908605056
30.74199870379146
30.71676273024338
30.7236910720232
30.69287758970233
30.68372389893569
30.7616197569048
30.76564978670331
30.69981448338257
30.6582193033308
30.65052391681999
30.70433765757602
30.6893860082415
30.64802226842652
30.69388130036703
30.64036099028253
30.68980098669803
30.63339959672851
30.71250608113795
30.72285561449874
30.67944034954362
30.66185638728712
30.70200679619936
30.62331109460981
30.69497079370993
30.71968274270314
30.7147508807648
30.66540579346004
30.67750175478499
30.68477931512635
30.64226633264053
30.66970914315615
30.66134612286384
30.70855911060307
30.72426927222205
30.72852793423981
30.68457662072381
30.65517420878082
30.69808082129959
30.63214109526538
30.68428582505771
30.70390299939342
30.70949738237263
30.73731890934094
30.73224417134339
30.7212221394688
30.72689043965541
30.6721198401563
30.67840325340682
30.69794242200683
30.6915781615638
30.69454227798828
30.70189548116117
30.71519583559618
30.70876468159559
30.62385258218941
30.64269545873458
30.65236609535344
30.68666897001055
30.6782185931993
30.65937290710849
30.66914518143508
30.71620131699187
30.73627697013839
30.73251896418572
30.74196542743266
30.74619576559457
30.75407021181069
30.75020632865154
30.71964845330038
30.73977634406866
30.67395843123668
30.66810724468086
30.70567785323635
30.7091035777546
30.61380509301133
30.67140107603898
30.6669718789039
30.62620150124726
30.6186446881062
30.73450291935493
30.73332874957085
30.71800834557207
30.73638536304213
30.72055289590511
30.72507424737394
30.69519665878034
30.61533470354024
30.6070002982702
30.67941517353324
30.59278409394053
30.60380243946364
30.65717970456446
30.58859436570584
30.57422813635909
30.63984627698788
30.55005686049662
30.56877729591975
30.60182800049315
30.5429259083281
30.51823073247728
30.69771145149108
30.7021753136755
30.61772162974198
30.62382250836708
30.62969451167733
30.71032333891648
30.62552212057822
30.73551977576993
30.73199779146967
30.72583619883565
30.71525860369255
30.71229353602587
30.73710518826862
30.73051318410659
30.72887139180042
30.72290529897545
30.72706182382085
30.63377180689843
30.63078903695252
30.71147791188355
30.71333460956064
30.63323119537558
30.73767854091231
30.73810445618688
30.73838728016616
30.67554305638425
30.64659187473853
30.65066882954691
30.66223717230111
30.64223356522822
30.63757601564907
30.63325564361586
30.6021166254149
30.60905889320115
30.61053729197757
30.59467989736071
30.58670190304204
30.6924812402761
30.67001788495813
30.66734297816473
30.6895555939986
30.68640969145183
30.66136492275828
30.66446196260761
30.64265671980873
30.61275692069952
30.64003020525681
30.63416231055986
30.60998305124992
30.63720222969492
30.68303332920356
30.65804161481885
30.65448039900244
30.61966638029913
30.59670754326623
30.62366666117962
30.63090122310193
30.60037405024643
30.6274064220825
30.65177857030422
30.62728722464537
30.63260107124118
30.615391650099
30.5841154825196
30.61082366370848
30.60073506272529
30.57933610026474
30.60594580026137
30.64601036956712
30.62161124749914
30.61554510648853
30.5760612294394
30.55672311553576
30.58286563307811
30.595170522492
30.56294840057783
30.58922296814782
30.59245271197238
30.56890820627006
30.57813221060402
30.56877530764086
30.53527283433344
30.56095955318166
30.5435385678931
30.52706635796606
30.55256871083066
30.70003518978388
30.67249564828198
30.67478488903346
30.70413743929597
30.67882569739276
30.67689281021294
30.64508961976755
30.61992832287217
30.6473377087777
30.65130560177189
30.62195907051735
30.64940737909295
30.65728794406167
30.62845391521546
30.65602432731259
30.70901481276476
30.68491769120128
30.68363058865834
30.70755067545505
30.70592697659513
30.68058918965629
30.6821891035083
30.62706496367592
30.65303752325087
30.6546089979481
30.7150285413409
30.71460728570359
30.68913252792773
30.68954738784582
30.71530867006643
30.68982338353201
30.63444533035622
30.66211458736831
30.66143270726563
30.63417679121301
30.66184238445562
30.65840284644792
30.63174177452749
30.65937231249624
30.71248057870325
30.68605323868452
30.68703988426832
30.71404301022772
30.68857734728881
30.68788041615806
30.63255486373383
30.66088518039495
30.66019891568888
30.81259425291344
30.80990247026789
30.8112020432883
30.80852842123343
30.80979685177595
30.80585103562873
30.80719715933281
30.8083236910518
30.78282412499625
30.78503867692568
30.78770280455578
30.78719257412422
30.78992766409898
30.78965393686167
30.79212170074215
30.8033805879903
30.79901417299482
30.80070467074451
30.80166779273927
30.80508018848549
30.80426515726482
30.80674761757745
30.80235489639397
30.79812795783486
30.79737000104167
30.79993505363638
30.795685100949
30.79622437451672
30.79179343651834
30.79422487784726
30.79379977174622
30.81285531333555
30.8153458457016
30.81398178807919
30.81125289176118
30.82964757123888
30.82637726051669
30.82908287269278
30.82693428129377
30.82827055968359
30.83022216281893
30.82750508424278
30.83077686747072
30.8153835119945
30.8141762688996
30.81663467946125
30.81783855009355
30.82793508853825
30.82586251696193
30.82852587389283
30.82544214318436
30.82727754714583
30.82409397895075
30.82481201515521
30.82655287713269
30.82878982769688
30.82920847812496
30.83168387957763
30.83126665061164
30.82100754528228
30.81930080429293
30.81831605808002
30.82200647855522
30.81648442669884
30.82000873212785
30.81896240217445
30.81737804035425
30.82399708227728
30.82028286622319
30.82301076829529
30.82149520617356
30.82491776973772
30.82330674706614
30.8257666626426
30.82244850932624
30.83281971699986
30.82984909995728
30.8301051235592
30.83256018034626
30.83083047101651
30.83333707555294
30.8330896609133
30.83038340739668
30.82952896736786
30.83203008377368
30.82962826697338
30.83230988249256
30.8311536842862
30.83363186466216
30.83104140603108
30.83351996820268
30.67298302579298
30.65508378338699
30.65041243548865
30.70334527694319
30.68295811330201
30.68027449604991
30.65945492172823
30.68634168954246
30.6635448774163
30.68544350788934
30.71092274618058
30.68774002884679
30.67363926451116
30.64730568872124
30.67236739454819
30.67476205479222
30.65062321344313
30.67574009466097
30.6454252484337
30.66248734969565
30.64009930436337
30.62696218367537
30.60724969736285
30.60274586837274
30.61684068134681
30.5979587145518
30.59282607183999
30.64391995046397
30.61490377823396
30.62184932490202
30.63441429421399
30.6505232194586
30.62833967070504
30.59893561137151
30.56861417651866
30.57529862156902
30.58737177373281
30.60530101067761
30.58152023761177
30.67738402896289
30.69725108262188
30.67427629677033
30.65629434960492
30.63411448568544
30.63151908072854
30.62573263407527
30.65039900566071
30.6287353700142
30.66736842655348
30.69386132316248
30.67094180921753
30.63985739112916
30.61144933096508
30.61539663092827
30.62252424781281
30.64712373797568
30.61907374359194
30.60747018785711
30.62116883974775
30.59949709969991
30.58173744355701
30.61245667193653
30.59094247676166
30.56149830238942
30.57701735393063
30.55383558220014
30.53683363277378
30.56863924088229
30.54566288758143
30.68985474928734
30.71503864169077
30.69179403833615
30.66363670277424
30.63651031506322
30.63873240695628
30.64264807644209
30.66762386602868
30.64077120930044
30.69661631300178
30.72124726965577
30.71993171790944
30.71846171681871
30.71683307337024
30.69356331742471
30.67094424358304
30.64435502176825
30.6693641645849
30.72598159507721
30.7021599618637
30.70258144227145
30.7262634091394
30.70286111975533
30.65337784628625
30.67852603404255
30.67783049598129
30.67824902432327
30.65268837766414
30.72240830820771
30.72341617814658
30.70004455411239
30.7008920552651
30.72498838653642
30.7015967144193
30.67657585150515
30.67727241899754
30.65213559731281
30.74059052086981
30.73434012861433
30.73668807972851
30.74436045808548
30.74800356758301
30.74564136971722
30.77839744449716
30.78318090318827
30.78066086970577
30.77833777753823
30.77594386661685
30.77337358063286
30.73264797143382
30.72846339086471
30.72612641829311
30.72412838858859
30.72179761945765
30.71731029847094
30.75584318870278
30.76139828613462
30.75902071406931
30.74915746773596
30.75492772924095
30.75255714475212
30.76209199206482
30.76506129359433
30.76744420454263
30.77070099268144
30.76793020611804
30.77031514475177
30.70513125976418
30.71265919059699
30.70783330873415
30.7101454391291
30.57745772640013
30.60635549644772
30.55423292663606
30.58503943636387
30.30468618906032
30.27215630706856
30.41996134860569
30.33346943620824
30.21971987945323
30.31946882424473
30.28879765785289
30.35346109696356
30.33826929882835
30.27433318307976
30.31235148021571
30.28183261745137
30.34614591618374
30.20603301360319
30.2131292504313
30.23981117583964
30.2795692125362
30.24709398527606
30.39882468801741
30.36522023139421
30.34126579383655
30.36105371749538
30.37324105685659
30.39072196211205
30.36893016440211
30.38867660196792
30.38148249515915
30.33227533145013
30.34847009575245
30.32609870307417
30.29288098154758
30.39073749906283
30.39600364212928
30.3692101667185
30.3787216830572
30.36559190207404
30.35318260492424
30.40106959543128
30.39747071694703
30.40457406254194
30.4041118159049
30.40201285104554
30.22585605177428
30.35360662110092
30.34662042086991
30.29887095413618
30.3145691059349
30.35647383300727
30.38645163760759
30.35429903413925
30.38405679438361
30.34944137458706
30.35195770431807
30.30132539939157
30.33804397093419
30.30696681914765
30.3171634963012
30.34343063269207
30.31223584911633
30.29528249262533
30.35848860975301
30.3926421834423
30.36035030473622
30.39439542877913
30.36363614167031
30.36206426249944
30.33470213889183
30.34393519655437
30.33118503157423
30.31914579569091
30.33744357591299
30.37259693636578
30.34075436217947
30.34674214006024
30.37576269006908
30.34384967293432
30.33390557707669
30.36172462290063
30.33012482148753
30.32177241252586
30.3575954324229
30.32608686780664
30.36565215906793
30.36215523882963
30.3556119230817
30.36072729385159
30.36657087383985
30.36858789208297
30.40000008509632
30.36754262295884
30.39880181837158
30.36507029754473
30.36637129140897
30.37201175567271
30.40491973603683
30.37234912242926
30.40514946116662
30.37257343575067
30.37156048242114
30.40353189987252
30.37099413323007
30.4028329630647
30.36950984972777
30.3703112326929
30.28375761916433
30.28169968988222
30.23157410206264
30.23691218831305
30.26575027004349
30.2688830386676
30.26240248390739
30.25882503490801
30.29522079883341
30.29423171638965
30.28566415330105
30.28742581865789
30.27710308971584
30.27948416919924
30.24656062075432
30.24189794596022
30.27454892666511
30.27181195893387
30.25092173911444
30.25500418489613
30.29189223882994
30.29312332378794
30.29053512788773
30.28904770371276
30.26015572773632
30.28646388211455
30.25385671882583
30.31961295974994
30.35144772833985
30.31749899988843
30.34911792846162
30.31277756454663
30.3152233975118
30.26602461061279
30.3044579257323
30.2715053140334
30.28141145668825
30.30968606866234
30.27662357421585
30.30111723714779
30.33798669492403
30.30433492103912
30.31015425503572
30.34106494337323
30.30734296313143
30.2976792600013
30.32743535365724
30.29400507261869
30.28588914039312
30.32342319628118
30.29008164376628
30.33138845433965
30.36461379900091
30.33037231495264
30.36344725847513
30.32796899271477
30.32923369750245
30.32157126970508
30.35746026424698
30.32338094709901
30.35916648839555
30.32657493371402
30.32504693314967
30.36736768583995
30.33228470661331
30.80276204162795
30.8040668077334
30.80028821255995
30.79897651216071
30.80119924968626
30.79937121186526
30.79578683823841
30.79744008766231
30.78424659273446
30.78285569489072
30.78660503410155
30.79424751673713
30.79261976997288
30.78884785576108
30.79048182603428
30.78494257886818
30.78872386851985
30.7907376172062
30.78699012473529
30.80976727779431
30.80823476178206
30.80597191382414
30.80460856461543
30.81228211590878
30.81107149641294
30.80725445422078
30.80848391171039
30.82515218268404
30.82131987978171
30.82442435435247
30.82071984055319
30.81338312760467
30.81424904510118
30.81048018679057
30.80956970890439
30.82273657410826
30.82232473335488
30.81848951548102
30.81897303376171
30.82097228753702
30.8216894012754
30.81785574510193
30.81710733168174
30.81722948878197
30.81838527582698
30.81456053601986
30.81355884321582
30.82018440900971
30.81932187527542
30.8154733332688
30.81633151417764
30.82770820940619
30.82387116390389
30.82728668503855
30.82356167777492
30.82640718197023
30.82651082240108
30.82257012603774
30.82275869583665
30.82566050136045
30.82181907994076
30.82608068541313
30.82224630259796
30.82418259473312
30.82802260362566
30.82790989851984
30.82406799672103
30.73154711902569
30.7352430313122
30.7313504518361
30.73899960096572
30.74263385730979
30.73892098950641
30.7522515550472
30.75281797801965
30.75599244454396
30.74614249296155
30.74953824672992
30.74236099428092
30.77376909457237
30.77535694629742
30.77753811536824
30.77291101219804
30.77033943193119
30.76655461998885
30.75827685013157
30.75905870922295
30.76202640265084
30.76766457559622
30.76489282244383
30.76391650057628
30.7194096894353
30.72732532220696
30.72315151468997
30.71883263673515
30.71435131861368
30.71062501043645
30.69628591720563
30.69989688421654
30.69470379331305
30.70971129184027
30.7048918657336
30.70607662038109
30.49626437725825
30.44462240777293
30.47133916045323
30.42642291635761
30.39770184784565
30.51006025082459
30.52267755784583
30.45788953240904
30.48488989620197
30.49728505641851
30.47003183535081
30.43956757351857
30.45159154908379
30.41056141921518
30.42232902682989
30.41718499444789