/*--------------------------------*- C++ -*----------------------------------*\
  =========                 |
  \\      /  F ield         | OpenFOAM: The Open Source CFD Toolbox
   \\    /   O peration     | Website:  https://openfoam.org
    \\  /    A nd           | Version:  7
     \\/     M anipulation  |
\*---------------------------------------------------------------------------*/
FoamFile
{
    version     2.0;
    format      ascii;
    class       surfaceScalarField;
    location    "0";
    object      phi;
}
// * * * * * * * * * * * * * * * * * * * * * * * * * * * * * * * * * * * * * //

dimensions      [0 3 -1 0 0 0 0];

internalField   nonuniform List<scalar> 
36583
(
-0.0003871812938120518
0.0004496109952781159
0.001212399934273755
0.001245294434645693
0.001245274721665694
0.001213215654914488
-0.001148735003735225
-0.001111083256420726
-0.001109871357498324
-0.001149758861622967
-0.004688162640551936
0.004228996672862976
0.0006772410273587912
-0.000593266688023331
-0.001132871115535063
-0.001092495087188308
-0.001131301717445636
-0.001094349543073255
0.001203983612789927
0.001235909870163577
0.00123582743254103
0.001202802462650337
-0.004668415718938014
0.004156935464700601
0.001146073907367528
-0.001002485163920629
0.001187630673670513
0.001219997731188345
0.001219389500885219
0.001185887675853671
-0.001094523381073785
-0.0010530700601852
-0.001056352473915029
-0.001091796638201678
-0.004651464077578185
0.003990712305912549
0.0007717088047810097
-0.001123540057475629
-0.001086890514678294
-0.001125340378923189
-0.001084755635109607
0.001198937314388672
0.001232043204157301
0.001232187053275007
0.001200256305518274
-0.004662009406210632
0.004124644337623059
0.001181518083716572
0.001215220223351485
0.001183368703335013
0.001216203979445732
-0.001077299705431477
-0.001042412537840822
-0.001080455311517897
-0.001038586298287487
0.001315467027970171
-0.004655554156197003
0.003928603898804494
-0.0003295816411519736
0.001215642362496514
0.001247778137861237
0.001214930038789835
0.001247830714807498
-0.001153866146892838
-0.001114115264807595
-0.001115177012054344
-0.001152980808424961
-0.00469424714244893
0.004246605467995748
1.992041971508353e-05
-1.493567357070087e-05
-0.001313699176437039
-0.0012483214055391
0.001385771391575467
0.001171264444258427
-0.001312715855946558
2.505081217413102e-05
-0.001246866595544645
0.001384697335291214
0.00116975472373113
-8.867243226490507e-05
-0.001299165566504377
9.606645445748079e-05
-0.001229182381635698
0.001369495833902967
0.001151458092046328
-9.986512470319141e-05
0.001119104067180861
0.0001077566625153038
0.0008462134437254501
-0.001059841994416918
-0.0009133670543009084
0.0005178949158144008
0.001210468287345624
0.001242466174768332
0.001242457749832037
0.001209539367453018
-0.001144956987898489
-0.001104923713758562
-0.001106319384911256
-0.001143772980619095
-0.004681754611211686
0.004208512178443327
0.0001187400408866119
-0.001222182767771032
-0.0001111345567091091
-0.00129410856756093
0.001363188047312587
0.001145497803840921
0.0001336967733342768
0.0008437244198476927
-0.0001246496482668533
0.00111218417763468
-0.001053240273763859
-0.0009117154487870312
0.001206340279040009
0.001239303112465197
0.001239343217108691
0.001207391149824777
-0.001137999522450215
-0.001100779971029269
-0.001139364737080633
-0.001099170523019502
-0.00467510724086558
0.004184672463770026
0.0001750190373164491
0.00109998730337995
0.0008397822657623431
-0.0001638698522310164
-0.001041753565708518
-0.0009091651885184536
0.00015553065636322
-0.001285539691535925
-0.000146157722690543
-0.001209869652530095
0.001352925563615337
0.001133110846777078
-0.001219233585805784
-0.001291971579463865
0.0001277216462095219
0.00136109930517809
0.001141124254761843
0.0008427783883847894
0.001109334876050416
0.0001432334745918006
-0.001050688040225565
-0.0009109619254758635
0.0002649167326611601
-0.001262421851432155
-0.0002486058200276943
-0.00117158598678525
0.001323801390998826
0.001093895534586167
0.0002972088404299498
0.001061401017569942
-0.0002780887763041046
0.0008310861065554812
-0.001005514325444222
-0.0009060928628071498
-0.000879079464424403
0.001190384932180982
0.001223723801371801
0.001224103819349924
0.001191991600916414
-0.001104061951780896
-0.001068152471405198
-0.001065318568118037
-0.001106430049555707
-0.004652462137819516
0.004042815325345795
-0.0002023940830734341
-0.00118825298592989
0.000217283274104086
-0.001271757731194907
0.001336656632471899
0.001108464893622334
-0.0002274872518501241
0.0008342784709251908
0.0002432452061398066
0.001078412925211572
-0.001021640302395861
-0.0009068090480307415
0.001096146345083552
0.0008387053298078788
0.0001870089444084109
-0.001038294699839085
-0.0009085468821526069
-0.001282874885268582
0.0001668544271542259
-0.001205938124572866
0.001350277968392122
0.001127211270651546
0.001196238575569461
0.001228221726279722
0.001227985198148868
0.00119477632143114
-0.001116601169325632
-0.001075774499232388
-0.001078231806877399
-0.001114537590441798
-0.00465641506730228
0.004086967652082667
-0.001193501070766013
-0.0001903356896175532
-0.001274959929266487
0.001339925984903595
0.001116476621663898
0.000835357353121291
-0.000213218097551697
0.001083600052095284
-0.001026325885316589
-0.0009069006742053801
-0.00125879967211433
-0.001164440689419849
0.0002855485182032782
0.001319903981022304
0.001082704594963535
0.00105422411660551
0.000830367007279034
0.0003191005363440437
-0.0009990055196210871
-0.0009074773001849854
-0.001300819744387254
-0.001231362295017406
-8.224767259490208e-05
0.001371094776497535
0.001154662503229883
0.00112119136226429
0.0008469864596565731
-9.226232664099098e-05
-0.001061699047523386
-0.0009140815724671982
-0.0002759434848199695
0.001217144899975681
0.001250102991834441
0.001250000285874345
0.00121776632116249
-0.001156595778821712
-0.001118707452748622
-0.001117752904092399
-0.001157368659321671
-0.004700035604116616
0.004261807743908951
-6.314436288090851e-05
-0.001236481483822854
6.945352248157534e-05
-0.001304665094057528
0.001375810467719725
0.0011590269505592
-7.113334836053147e-05
0.0008489496343158643
7.791824596089029e-05
0.001126241336753907
-0.00106650243024133
-0.0009154734384276329
0.000225516174343881
-0.0001776336796103931
-0.001162307087098992
-0.001124604834404923
-0.00112365701630336
-0.001163028436854641
0.001220755582761
0.00125415581940129
0.001253820470241758
0.001221276600478715
-0.004711295568597053
0.004287001975639179
-4.577665746344944e-05
0.0008511471387986213
0.001131531371354121
5.184964126778475e-05
-0.001071469136363562
-0.0009172823575947483
-4.062014168117271e-05
-0.001241769991921418
-0.001308833289521013
4.620122717441901e-05
0.001380458745447923
0.001164563450501677
0.001219620720841302
0.001251987036985531
0.001252177059900284
0.001219070078452757
-0.001160367828302433
-0.00112088937403225
-0.001159666052084564
-0.001121798251512416
-0.004705668573487596
0.004275107872730221
-5.749316757372754e-05
-0.001238048102930959
-0.001305901817804434
0.001376993295998066
0.001161305429422919
-6.451041280667161e-05
0.0008495545397996674
0.001127750354134143
-0.001067846063736995
-0.0009160817657581492
8.709028947772006e-05
0.001225971940692997
0.001259041989989499
0.001259362155447394
0.001225498376870664
-0.001171646443001448
-0.001130883321883096
-0.001131492459674507
-0.001170503615172734
-0.004718000658969934
0.004308890068361915
2.24360270916169e-05
0.001137889753139295
0.0008550305258706221
-1.674450829933334e-05
-0.001078397871011699
-0.000920213926791079
-0.0001316846379071428
-0.001165695361979485
-0.001126228172061501
-0.001164749057539893
-0.001127274380730719
0.001222880638323996
0.001255621699925295
0.001256133109181264
0.001222311983769596
-0.004716478643651672
0.004297529143040876
0.0008517287549282422
0.00113274629570493
-3.976070622591158e-05
-0.001072614319485644
-0.0009178766823929362
0.001223914219590099
0.001258013252210858
0.001257452946033374
0.00122456115702833
-0.001167439073696118
-0.001129740311233581
-0.001168784744736068
-0.00112872408357423
-0.00471919905010976
0.004305351340024802
-3.543126493805729e-05
-0.001242981682956546
-0.001309824554631409
0.001381402907929399
0.001166214452908204
2.809537705911536e-05
0.001136588257274663
0.0008540460159279829
-0.001076825015906138
-0.0009194686072746106
8.773125545794128e-05
-8.202196272660474e-05
0.0008776952460954817
-0.0008834045388261883
9.378306614915377e-05
0.000875437280862497
-0.0008814890915583199
-0.0001002159809693182
0.0001070530402705264
0.0008704086410097922
-0.0008772457003112261
0.0008730083680140103
-0.0008794412828435467
0.0001494651180221802
-0.0001396382803455233
0.0008544472811615347
-0.0008642741188376175
0.0001601345905900497
0.0008505664814792913
-0.0008612359540515733
0.0008463910573873945
0.0001718011314830806
-0.0008580575982833598
-0.001860942065574216
0.001626783321143012
-6.308848877206921e-05
7.06876164417377e-05
-0.001063169456485945
0.00128972907324729
4.575978400936417e-05
0.001862515029220813
-0.001087061894861739
-4.036497406658902e-05
-0.000780847944302639
3.280743833756315e-05
-0.001628041802286504
-2.893864681341745e-05
0.001624173010762021
-0.001086161642976061
5.127506979017014e-05
-0.0007802957083942073
3.676271521685059e-05
0.001622828044249052
-5.564416116449263e-05
-0.001063999957021783
0.001291028856323463
6.096322681517297e-05
-5.647581514677147e-05
-0.00163376738854682
0.001629279976879344
6.563009188441222e-05
-0.001631254317649511
0.001626587452576681
-7.053786085596288e-05
7.566370656621496e-05
-0.001625675640818894
0.001620549795108985
-0.001628576651950526
0.001623668882970252
-0.0001581437422497103
0.0001693953196938479
-0.001571377015164506
0.001560125437720656
-0.0001477019870420796
-0.001577679655092324
0.001567237899879836
0.0001381355139428391
-0.000129198161633859
-0.001589057272490246
0.001580119920181738
-0.00158350067868627
0.001573934205578088
-0.001564788926796702
0.0001817871199408457
0.001552397126545492
-5.218605339590568e-05
-0.001636078491630998
0.001631788729875752
-4.804356120036609e-05
-0.001638235857061749
0.001634093364861956
4.406234725819225e-05
-4.020107785869619e-05
-0.001642040069197551
0.001638178799797867
-0.001640209765938998
0.001636228551989168
0.001609140399260419
-0.001838960231336978
0.0001518452933546922
-0.000141268998460531
0.001273058414914506
-0.001053814877732292
-7.897584005038297e-05
-0.001606308250933135
8.471892641631745e-05
0.00160056516456616
-0.0001101521578522887
0.001835428559799312
-0.001071327536619175
0.0001181654843566275
-0.0007721143496844892
-7.348241425497426e-05
0.0016036469734492
-0.0001024888510149315
-0.001073385257866717
-0.0007732382803222493
0.0001628634733345872
0.001270313442115052
-0.001052211313255673
0.001611756306243532
-0.001842253847168272
-0.0001312351858133787
0.001275494663689976
-0.001055030935421357
6.825410731731267e-05
-0.001614210230413196
-6.323130638466893e-05
0.00160918742947997
9.519429453137765e-05
0.001845299504130236
-0.001077077596588134
-8.818817882125577e-05
-0.0007752280232520464
0.001606527999291807
-0.001075304862992948
-0.0007742435406759017
-0.0001215659289521372
0.001277858014502441
-0.001056437997670074
-5.756909788757852e-05
6.199993980398702e-05
0.0008868693933135599
-0.0008913002352302746
0.0008883204773319495
-5.332949100503959e-05
-0.0008925600842187859
6.664227347621048e-05
0.000885295998785832
-0.0008899383324615715
0.0008836000550573519
7.150999079063576e-05
-0.0008884677723763597
-6.512591862158873e-05
-0.001076070982115091
6.986936411071583e-05
-0.001077915010608105
-6.059616588534584e-05
0.001506830474555594
-9.767192532038723e-05
0.0001051749762844434
-0.0006274641322122477
0.0001294282279868587
-0.001509303061001774
0.001081218449210854
-0.0001198999511899871
0.001169184678368596
-0.0007506283433744937
0.0001393513545693121
0.001079622047863174
0.001167125813871103
-0.0007498405137748698
-9.048329771173053e-05
-0.0006281712112976687
0.00150415069201033
0.0001130419547584428
-0.0006267216717077724
-0.0001497752864750496
-0.001501272444787415
0.0001606756516714181
0.001162460985599049
-0.0007481598881278239
0.001164859780113266
-0.0007490480306347745
0.0001212855277607714
-0.00062591596274776
5.627898102405951e-05
-5.213812841723893e-05
-7.662934440309829e-05
0.0008798052892780934
-0.0008851979076065514
0.0008817688725638837
-0.0008868882261840121
7.487063704789586e-05
-0.001074107490037393
0.001069106217097512
8.013183702327278e-05
-0.001071993758266918
0.001066732558289203
0.001491255536934865
0.0001487865555479101
-0.0001391071180075038
-0.0006232397283874527
-0.0001970953669692839
-0.001487431533973633
0.001067343644244954
0.0002106320135204265
0.001150788993186684
-0.0007442377500106931
0.001069751743229526
-0.0001842683043658487
0.001153997450258617
-0.0007453207191759733
0.0001590298953129924
-0.0006222375928976428
-8.570772404151664e-05
0.001061449641996164
9.160172627845677e-05
0.001064175856198917
-0.0001299673723516094
0.001494837325996507
-0.0006241717823863584
-0.001498163653923278
0.0001721822713404828
0.001159826166984498
-0.000747276622778037
-0.0006250766259642076
0.001157046559061508
-0.0007462890243829527
-9.281052486200538e-05
9.917790089359784e-05
-0.001611959034422448
0.001605591658390921
-8.676755051037437e-05
-0.001615754607161202
0.001609711632805263
8.108294739063989e-05
-0.001622597856596275
0.001617178615765953
-0.001619271522313885
0.001613586919187267
-0.0001745418495565797
-0.001827549743994734
0.001600055449364394
0.00018675692726773
0.001264310870139272
-0.001049031653219435
-0.001603301650566269
9.078462525166165e-05
0.001597235951725879
0.00183162055566138
0.0001266267629124628
-0.0007709756171326828
0.001267483747187829
-0.001050843218337869
0.0001355138489709253
-0.0007697042717814137
9.715408268560462e-05
0.001593685991916401
-0.001823169102409049
0.001596620782777667
0.0001997781235770113
-0.001047508620221806
0.001261035743534921
-0.0001449473783220255
0.001818496138911881
0.0001549016287117447
-0.0007670007473074644
-0.0001039173466236298
-0.001592919047473071
0.0001110519614381703
0.001585784432658687
-0.0007684267755764487
0.001589857518824997
0.0002134544152754267
-0.001045478867250604
0.001257379666969191
0.0001143551387608667
0.0008676201120541566
-0.0008749222105485011
0.0008646483864313885
0.0001221677521999515
-0.000872460999875589
-0.0001116988715615548
-0.001056095340383124
0.0001193340447643692
0.0010484601671801
-0.0001045516827999951
-0.001059180864869116
0.001052033676103851
-0.0001699303731526917
0.001478928800164009
0.0001815148119282373
-0.0006201045979375367
-0.001483316817359305
0.0002250747089452337
0.001064795779082284
0.001147269275208822
-0.0007431909323659739
-0.0006212089272052802
0.001062063278769978
0.0002403866650816927
0.001143572450006107
-0.0007420188847628966
9.788118382619761e-05
0.001058516321521657
0.001055392779784579
0.0001939077733124985
0.001474214104301607
-0.0006189869536438742
-0.001469197269905957
-0.0002568175302595338
0.0002743342155973389
0.001135258083140297
-0.0007396728389620901
0.0002071571264339533
-0.0006177982366133794
0.00113951387997166
-0.000740911505742651
0.0001059856701892234
-0.001607957220519951
0.001601149451220191
0.0001131930973560776
-0.001603640467102617
0.001596433039931593
-0.0001209467137344945
-0.001594200244037311
0.001585948796134551
-0.001599099904981107
0.001591346288594654
0.001565213241977365
-0.001782649584203653
-0.0002972351485494086
0.000317744882764964
0.00122951014090423
-0.001032583532894055
0.0001546645248069111
-0.001570605688209641
-0.0001446664376203309
0.001560607601022931
0.0002157168993999044
0.001789660597521402
-0.001044615643764261
-0.0002017807969294567
-0.0007589810562269419
0.0001653837671946374
0.001554493999575919
0.0002306660464041042
-0.001040525135710731
-0.0007570735955119265
-0.0002779928351213628
0.001235101248336985
-0.001035288652480145
0.001559556712218746
-0.001775092487838819
0.0003402200253301588
0.00122360689200389
-0.001030546258958026
-0.0001770635570720854
-0.001553458388434247
0.0001896723490282952
0.001540849596477162
-0.0002469441725964591
0.001767038329056474
-0.001031418280812724
0.0002645288612989157
-0.0007532047369448225
0.001547876922327123
-0.001036116050876471
-0.0007552545631729618
0.0003643260709941712
0.001217119378309795
-0.001027645483374613
-0.0001305762437210994
0.0008580799500515204
-0.0008671419866806529
0.0008614683899095134
-0.000869876881437775
0.0001275683726881699
-0.001052849971698587
-0.001049378493796148
0.0001364217307673943
0.00145191790257903
0.0002534657936353294
-0.0002367928094548362
-0.0006141436056042971
-0.0003356654590123214
-0.001445349293252544
0.001041835997996805
0.0003595479067642841
0.001114553756954182
-0.0007349229094511512
-0.0003135631247919743
0.001045734689092385
0.001120244843365839
-0.0007361639641157515
0.000271546751112969
-0.0006128637692723857
-0.0002214295383513227
0.001458080792116682
-0.0006153641131802233
-0.001463811170513375
0.0002932590183071317
0.001130575996509025
-0.0007385396004145532
-0.0006166151925359439
0.001125668136303529
-0.0007372699444850935
-0.000146040368971021
0.0001564580861369525
-0.001802368960083219
0.001580379320856751
0.0002602911543161347
-0.0002435924142736172
0.001245013548162862
-0.00103972264897948
-0.0001354210795634648
-0.001575613478119386
0.00156636812005809
-0.0001888862285340261
0.001796246412989587
-0.0007606808142179305
-0.0001767913288026338
-0.0007624301837282876
-0.0001267458975057502
0.001571704138785608
0.001240169844707759
-0.001037238590666217
-0.0002281205860004951
-0.001808120955041871
0.001584807185158171
-0.001041545982886428
0.001249387924487271
0.001813472444157938
0.0001655259245938175
-0.0007655804185267336
-0.001589012879569385
0.0001186701766920074
0.001581394664310918
-0.001043801767826436
0.001253595161668843
-0.0007639935794791258
0.001576731464331187
-0.00154707304928503
0.001533213105906703
0.000203532292402605
0.001758327095933892
-0.0010263377479272
-0.0007513042022274276
0.0002838437155132166
0.001210186940066993
-0.001025597071457739
0.0003909902490191161
-0.001438261002982341
0.001037752393372536
0.00110822323414077
0.0003857703252807012
-0.000733937043055127
0.0002913340821006849
-0.0006116572765983457
0.0001678727315665292
0.001620504720712149
-0.001853144242975881
-9.485667464908776e-05
0.0001034177848627193
0.00128374330655443
-0.001059664894504826
4.93308732867565e-05
-0.001622293865628454
-4.50092952301845e-05
0.001617972287571182
6.880041317268341e-05
0.001855352806214658
-0.00108292471933793
-6.277412435861946e-05
-0.0007784543756913582
5.378969601606685e-05
0.0016160458979689
7.501911483189536e-05
-0.001081642087454724
-0.0007777208571940439
-8.654001946892014e-05
0.001285463163788102
-0.001060720878403568
0.001618575484052466
0.0001123419917936523
-0.001850735015209855
0.001281966999583314
-0.001058731675364826
-5.842618668194203e-05
-0.001616468199044515
0.00161166307933708
0.001848128814743896
-8.148532734658306e-05
-0.001078725025687552
-0.0007761066405376891
0.001613938993373728
0.001279944699686201
-0.001057508021167461
-0.001080240529098179
-0.0007769606986409736
4.926952783275719e-05
-4.536557026600953e-05
0.0008909019113140078
-0.0008948058688802128
0.0008896635315609953
-0.0008937234947408171
-4.159975171588245e-05
0.0008920463041467252
-0.0008958121227016326
0.0008930950306570485
-3.795765966366922e-05
-0.0008967371227118482
4.067267918076561e-05
-0.001086485812788021
-3.711158573702918e-05
4.435116713837092e-05
-0.00108532057541828
8.359743523881029e-05
0.001513710102287823
-7.696879697151431e-05
-0.0006294368292476447
-0.00151159793759587
-0.0001107853304463645
0.001082690796231769
0.001171122967413625
-0.0007513304467984933
-0.0006288202685237423
0.001084061719857415
-0.0001019945190623909
0.001172880737532721
-0.0007520231664993475
-4.817235788710205e-05
0.001515663840313856
-7.058303683964299e-05
-0.0006300032963087354
9.353997442813964e-05
-0.001517453942687295
-8.534828560856158e-05
0.001176023247711476
-0.0007532468066345784
0.001174529941709007
-0.0007526412214671916
-6.440498468310295e-05
-0.0006305369642024021
2.705274822416826e-05
-0.001090250471443693
-2.38641716485871e-05
-0.001089422933105595
3.031403834808591e-05
0.00152199906290228
-4.696334557937627e-05
-0.0008957467820593103
5.261840449695222e-05
-0.0006319073397602282
6.22251266214159e-05
-0.001523284729630993
-5.48897984301222e-05
0.001181028044981908
-0.0007553291149892435
6.972110590337749e-05
0.001179897078582214
-0.0007548169280835199
-0.0008964940674760769
-4.143226228921674e-05
-0.0006323217454590099
-2.769078648864739e-05
3.101900342700911e-05
-0.0008990749990031696
-2.443174454591786e-05
-0.0008997531094250616
3.443532014261656e-05
0.0008949362170108231
-0.0008983525337293447
0.0008940566526276606
-0.0008975789921547887
-3.366583336635387e-05
-0.0010875495980799
0.001084103845705687
-0.001088529381972872
0.001085177586949306
5.842709917665918e-05
0.001520608624267317
-0.0006314811019477314
-0.001519101712108758
-7.742921401588435e-05
0.001177421752938464
-0.0007537887105118645
-0.0006310229450017987
0.001178693675216036
-0.0007543225410507444
2.930274570197848e-05
-2.584634630162046e-05
-0.001647897899183471
0.001644441499783014
3.28349861536162e-05
-0.00164662209659581
0.001643089856139056
-3.646985773531978e-05
-0.001643704070523842
0.001639972850396588
-0.001645235987734243
0.001641601116144099
7.85155308612845e-05
-0.001859238060872749
0.001625422343787803
0.001288433232126831
-0.001062445429469267
-0.001623921937497635
-4.083096728459764e-05
0.001619743609547798
0.001857383375213526
-5.694753871195861e-05
-0.0007791061151664849
0.001286969242889875
-0.001061532293801784
-0.0007797329428643056
0.00162135409170541
0.001634669540382298
-0.001871562450116073
2.037702946766017e-05
-1.356432619345675e-05
0.001300023716724682
-0.001069943510263479
-1.060145998825172e-05
-0.001633751394381478
1.417550917383743e-05
0.001630177345195749
-1.479393101923885e-05
0.001870228450195949
-0.001091203318911166
1.97783108403498e-05
-0.0007840095111060759
-7.051551301822824e-06
0.001631119631678691
-9.841863138914151e-06
-0.001091889914580349
-0.0007846246034339404
2.724517744186959e-05
0.001298559886399083
-0.001068950978587999
0.001635176394591537
-0.001872288532790657
0.001300764290368862
-0.001070431272921117
0.001631642337713676
-0.001092273320992928
-0.0007849463014486252
-9.465923521372094e-06
1.265826675309728e-05
-0.00165335511164361
0.001650162768411153
-6.295616630332996e-06
-0.001654170831183994
0.001651000524287457
-0.001654625661570632
0.001651470437053288
8.949722932539216e-06
-5.953483520354987e-06
0.0009004314648910543
-0.0009034277043026743
0.0008998746103030792
1.196851822331051e-05
-0.000902893405598459
0.00090074793425282
-0.0009037291399647263
-8.744786782266705e-06
-0.001094150171169225
1.169163903322498e-05
-5.81709617776482e-06
-0.001094817605191628
0.001531264403054104
1.010196190230119e-05
-0.0006355757005470564
0.001095188485697892
1.338472540883883e-05
-0.0007605295536154503
0.001189916741260315
0.001530656741995399
1.518365291747859e-05
-0.0006353069681316386
-2.010595331468385e-05
-0.001529559239358987
2.687925349155598e-05
0.001187851727349584
-0.0007592159593403376
0.001189205043839912
-0.0007600871349640837
2.029995087903268e-05
-0.0006348009270343968
-2.074461990947481e-05
-0.001091023148955479
0.001087903597213274
-0.001091777653818585
-1.768081601484829e-05
0.001088713849921287
3.60156469477203e-05
0.001525700267457227
-0.0008978571793235204
-3.069704817788195e-05
-0.0006331616869044281
-0.001524503545264937
-4.771352750034867e-05
0.001182164574426428
-0.0007558604490600688
-0.0008971911239933059
-0.0006327290366296862
-4.066111567947522e-05
0.001183359962338386
-0.0007564897605391742
2.12352005622518e-05
-1.80987020854547e-05
-0.0009009936778070104
-0.0009003876679845612
-1.501435676587659e-05
0.0008985233847479717
-0.0009016077300701294
0.0008992058410148052
-0.0009022516795643888
1.46670441569449e-05
-0.001093351167027441
0.00109037576190054
-0.001092546194728246
0.00108953242286441
-2.546515697659133e-05
0.001526939655756516
-0.0006336481622229896
-0.001528249068854819
3.372483139612122e-05
0.001186248732061852
-0.0007581964081546457
-0.0006342084339534175
0.001184714588469735
-0.0007572574117424207
1.588267862295768e-05
-0.001652343729595878
0.001649119317721365
1.914782536153877e-05
-0.001651267898043923
0.001648002751302732
-2.246805113175023e-05
-0.001649068584180157
0.001645690289006298
-0.001650183602650326
0.001646863376872851
4.837097531640761e-05
-0.001865476722576596
0.001630339408012113
-4.121870775790737e-05
-0.001065646620420498
0.001293631667425842
0.001864005334384667
-3.509000230976524e-05
-0.000781376708939279
-0.00162920819613851
-2.515599112727256e-05
0.001625425540447561
-0.001064737886829451
0.001292261839205547
-2.990765202038677e-05
-0.0007819452229620138
-2.143968528773491e-05
0.001626623102159407
-3.418564858901318e-05
-0.001867004824216855
0.001631471009143173
0.001295114528888589
-0.001066613772995087
-0.001632630049619298
1.778443386861064e-05
0.001629021124919257
0.001868621096738318
2.481077610882985e-05
-0.0007832778001186596
0.001296832741990481
-0.001067782166041721
-0.0007825692772807962
0.001627815757710221
0.001242210482339128
0.001278389856435274
1.621802658647073e-05
-1.082270795789745e-05
-0.00131441720548452
-0.001249482905039221
-9.913010323941365e-06
0.001386683165820747
0.001172194281446828
-1.554351451773977e-05
-0.001241136945418602
2.084383871586614e-05
0.001181179434757365
-1.750284241858224e-05
-0.00127740064602969
2.340431643857906e-05
-1.036670345313916e-05
0.001181978621210004
-1.164709055472793e-05
2.17386983835227e-05
0.001238399952417794
-2.720666052279592e-05
0.001274962874839087
3.287258173580659e-05
2.606271800295903e-05
-0.001239776720193764
0.001179855237153622
-0.001311747068189097
-0.001245471590447091
3.010991061334993e-05
0.001383522012798901
0.001168637547391406
-0.001276149216668711
2.936433286504433e-05
3.147249980052623e-05
0.001178696048444296
3.540347690326777e-05
0.001260462669389603
0.001219303067801382
-0.0001043833444205596
0.0001125122051808611
9.979130187859659e-05
-0.001221466681166167
-9.249393640343844e-05
0.0011602981838178
-0.001227120109087331
-0.00129768381374651
0.0001030219402073297
0.001367413881261794
0.001150434555816159
0.0001127095363661951
-0.001262065119408864
-0.0001044067576796766
0.0001213257782924264
0.0001074343958071813
0.001159250881770698
-9.684147560035889e-05
-0.000981484891940203
-0.001230194454970196
-0.0001090417274504931
0.0001169551351928875
0.0001079865978708112
0.0009822871393864452
-0.0001001002271700356
-0.0009821526993398974
0.001117037473512319
0.0008454450872562422
0.0001160151403555606
-0.001057802514632323
-0.0009129385239849125
0.000106753410421595
0.001232283828494336
-9.886714009308949e-05
0.0001162555149723818
-0.000982587693050231
0.000114886315880692
-0.0001006676188852066
0.001258588538326323
0.001216693717649467
0.0001207566514476664
-0.0001304073265059817
-0.001256753985425349
0.0001398680678873303
-0.001224577311592932
-0.001295794876410467
0.00136557857035122
0.001146681001136818
-0.0001154216829230205
-0.001214178849213262
0.0001237889386233863
0.001154169200706713
0.001155369303936387
0.000129676626358043
-0.0009803815834102606
-0.001227576830634269
0.0001261416835903419
-0.0001235143736493094
0.00122514547072492
0.0001324399586666081
0.001114593429317562
0.0008445833886278244
-0.001055620982252498
-0.000912190343618549
-0.0001248868358324575
0.0009794907049294084
0.0001339322405724538
-0.0009812756458040673
-0.0009807388598843893
0.0001347935653492676
-0.001215760837853486
0.0001658695200153844
-0.0009759752157587504
-0.0001545132021710876
0.0009749250565447965
-0.0001640970422939054
0.0001752019581071105
-0.0009785377561788841
-0.0001624758687867339
0.001212508811990872
0.0001735375684159942
0.0008408114611415061
0.001103226953420446
-0.0001532312630548844
-0.001044950420441159
-0.0009097265833053001
-0.0001518545708359503
0.0001765228038334009
-0.0001534497397210508
-0.0009777451080061209
0.00120472500743846
0.001250139369123393
0.0001588102552074029
-0.0001486552754567215
-0.0001517186774151429
-0.001201361646272859
0.0001620164998448846
0.001141434002457314
-0.00128767156371049
-0.001213058400124119
-0.0001361216008317415
0.001356014550508248
0.001134679291461194
-0.0001715689127847739
-0.001247786815763878
0.0001833114742361295
-0.0001418591871054196
0.001143021385936684
-0.0001603850321409119
0.0001698439227685962
0.001208235687773815
-0.0001387798129917528
0.00125253999892406
-0.001254624347965362
0.0001498969251540616
0.0001326182394357618
-0.001211147362400097
0.001149649594573663
-0.001290068082826994
-0.001216466361524353
0.00135837403007046
0.001139760459647952
0.00114826987436973
-0.0001449608699167132
-0.001219285732632973
-0.0009772977753073732
0.001222102098080264
0.0001419667988043868
0.0009782731619204148
0.0001434707662403698
-0.0009792567825823778
0.0008418312173975182
0.001106537423868109
-0.001047923999529601
-0.000910442430212686
-0.0009799098479579306
0.001226395200157975
0.001167188046180763
0.000270070186924423
-0.0002524158676006438
-0.0002575481623711364
-0.001161101428994606
0.0002751192779436592
0.001101106193164334
-0.001177265203778973
-0.001265471691041501
-0.0002312105013093225
0.001328683749906042
0.001096657826189357
-0.0002922248858896531
-0.001222806107973835
0.0003129175883695589
-0.0002728976222983655
-0.0002403686354604731
0.001103926329092438
0.0002891697040974783
-0.0009658539349445073
-0.001178847356247615
0.0002818465075510523
-0.0002622148564026782
-0.0002780148089755407
0.0009648855758510035
0.000296796682166618
-0.0009753364916710498
0.001067299331955182
0.0008321614623657084
-0.0002596589105009568
-0.001011230686058848
-0.0009066599740730485
-0.0002764078875017512
0.00117303161269802
0.0002958114013463822
-0.0002595203863259258
-0.0009734014995779585
-0.0002581035012124858
0.000300321574500055
0.001229980973598199
0.001173559456655171
-0.0002360612247864602
0.0002552886661326916