/*--------------------------------*- C++ -*----------------------------------*\
  =========                 |
  \\      /  F ield         | OpenFOAM: The Open Source CFD Toolbox
   \\    /   O peration     | Website:  https://openfoam.org
    \\  /    A nd           | Version:  7
     \\/     M anipulation  |
\*---------------------------------------------------------------------------*/
FoamFile
{
    version     2.0;
    format      ascii;
    class       volVectorField;
    location    "0";
    object      U;
}
// * * * * * * * * * * * * * * * * * * * * * * * * * * * * * * * * * * * * * //

dimensions      [0 1 -1 0 0 0 0];

internalField   nonuniform List<vector> 
12685
(
(0.6680394069357233 -0.05855615879653576 0.6514759794273387)
(0.6641834145793685 -0.08891340270277981 0.6410181867436984)
(0.6586187315916936 -0.1503404367272185 0.6168323248435261)
(0.6627334306980587 -0.1014023870846962 0.6363199604932792)
(0.6577644437781638 -0.1722032346116127 0.6077817763041949)
(0.6690977935729668 -0.05015351901542576 0.6539935710205392)
(0.7395101554803127 -0.01011157892413185 0.7758319141949384)
(0.7392959406493355 -0.0130594465621405 0.7755202596814341)
(0.7325295569164589 -0.05373541537250334 0.7657671298799585)
(0.5299366213453075 -0.05986872112797088 0.6510253794064247)
(0.6668594996943431 -0.06770559364740228 0.6485143795254074)
(0.7294223830814497 -0.06686019819532113 0.7616424009386115)
(0.528593445703728 -0.07449557154628737 0.6470167333958374)
(0.6655683356057398 -0.07776048069181184 0.6450523441218643)
(0.5264961211665078 -0.09772438579141619 0.6399567859116111)
(0.7243073256840474 -0.08774893101500143 0.753766996935848)
(0.7283070832540083 -0.07168929626834346 0.7593073786965399)
(0.5280910852614303 -0.07985312708570386 0.6453819550011779)
(0.7101297506381669 -0.1493562037833073 0.729047395910129)
(0.522374967638699 -0.1659159491360516 0.6175326991627055)
(0.6598526314241612 -0.131672042325767 0.6244149763873367)
(0.7162092593677346 -0.1220703419183199 0.7390155565780985)
(0.523895226585143 -0.1357586460735503 0.6274511547855544)
(0.5259874750056664 -0.1043976485184758 0.6377464522577581)
(0.7229081902871768 -0.09377305689323906 0.7506321756038307)
(0.6612648254267653 -0.1155270653850287 0.6308383597341563)
(0.7179057952152564 -0.1142290630108035 0.7432420286976922)
(0.5242614815332166 -0.1270980291200719 0.6304504850351539)
(0.7081748722817456 -0.1601004340315861 0.7232041170913369)
(0.5225223301119207 -0.1777357213695607 0.613354366313977)
(0.7333860435463031 -0.04971123652198566 0.7674800117504504)
(0.5303701126307248 -0.05540239559128871 0.6522167656702058)
(0.6700292223682475 -0.0423644137981341 0.6561110017998736)
(0.7357011136167602 -0.03856733628767705 0.7704642756548687)
(0.5314233899074753 -0.04297772727373975 0.6551018673219742)
(0.6715089486349489 -0.02818595210624941 0.6592603052509921)
(0.5325278128963036 -0.02813535239101434 0.6578712220038998)
(0.7379264572671129 -0.02524659040676305 0.7736782560837694)
(0.6708319821499236 -0.03507487154867203 0.6578602690493)
(0.7363230374373759 -0.03508309046968069 0.771666058815318)
(0.5317638009325524 -0.03911078637441489 0.655935423094772)
(0.6728997533352042 -0.009099876318208218 0.6613806910599002)
(0.5335105522383107 -0.01125235731353561 0.6595061792784993)
(0.6720715948509125 -0.02161110696932706 0.6603121222722648)
(0.5327813513214121 -0.02464465850854284 0.6583816343450775)
(0.6725393659797985 -0.01527343291372651 0.6610047257007327)
(0.7383356220865191 -0.02210652471027933 0.7744253373062131)
(0.5333166845749113 -0.01452603890522201 0.659345887842902)
(0.3001557354335797 -0.09629709090552878 0.6716653837394946)
(0.2994804979071023 -0.102965612857758 0.6700092723105968)
(0.2979861616782176 -0.1175724942247988 0.6663274194171421)
(0.2987590129439787 -0.1100445909548545 0.6682311420155298)
(0.2933624648864143 -0.1640157670861564 0.6547105603514123)
(0.2922672699763049 -0.1756442914410894 0.6519034744257092)
(0.2911127788836286 -0.1883156688146585 0.6488986539093324)
(0.594486840671125 -0.03039844046806918 0.7735901292401635)
(0.5139140050097043 -0.02759360324827969 0.7926127091698814)
(0.5852315450598582 -0.02655732394720981 0.8392887095810714)
(0.5135558446673697 -0.03109136244037252 0.791996578977533)
(0.5847982274888007 -0.02992390146956223 0.8386436344394542)
(0.5948918939319225 -0.02697762288107472 0.7742298014438513)
(0.6778006275151879 -0.0541556405646073 0.8586229875454213)
(0.6767392757870854 -0.0583771417675906 0.8572305017049824)
(0.6743761651976867 -0.06741943342420151 0.8541142109941533)
(0.6756032582707127 -0.06279245841090038 0.8557268964636178)
(0.651176346037017 -0.1510398171048257 0.8231012349882874)
(0.6538825907104298 -0.1410368667474299 0.8267428434610993)
(0.6587691277509569 -0.1232781651220072 0.8333304994449363)
(0.6563934361552486 -0.1318107382116269 0.8301548010647146)
(0.6483170369838147 -0.1619416116515792 0.819178673551612)
(0.6787791718738123 -0.05010803345181715 0.8599156137219413)
(0.6796883175514521 -0.04621944304972543 0.8611067289915086)
(0.6812896406157816 -0.0388564166315287 0.8632107223419224)
(0.6805215227641132 -0.04247311949362841 0.8622055496285779)
(0.5888554441093669 -0.06661566334066572 0.763980099335999)
(0.5773304955224872 -0.07041479649981112 0.8274356015501823)
(0.5074940112745783 -0.0731639181100668 0.7812779514257492)
(0.578369780613205 -0.0655812062967492 0.8289946810831866)
(0.5083386819731791 -0.06814018873248191 0.7827711852275864)
(0.5879116867165445 -0.07152348136055772 0.7624101978642905)
(0.5896513470539581 -0.06193149645699194 0.7654333032782764)
(0.5802302262460524 -0.05655936441554064 0.8317940005030035)
(0.509841639260222 -0.05876425094038864 0.785450734109332)
(0.5793311597735642 -0.06096909105233748 0.8304481199023909)
(0.5091083028174108 -0.06334706443204909 0.7841637319809591)
(0.5904737505723718 -0.0574535260729958 0.7667833196228963)
(0.3029271761090814 -0.06783572052392348 0.6784173057250771)
(0.303369760839072 -0.06292017874123539 0.6794894425706552)
(0.3024494686882497 -0.07297901390960494 0.6772568973056972)
(0.3019345526777694 -0.07837113537663089 0.6760068916749898)
(0.4339988405431154 -0.07470154860711761 0.7667640212809131)
(0.4347659390788458 -0.06957010943501869 0.768194648759797)
(0.3748585455209612 -0.06669118599449357 0.7019778677235908)
(0.4496380188341745 -0.06069749284184885 0.6996076471948109)
(0.4490709018602787 -0.06543233160295407 0.6984022706252123)
(0.3753615400519123 -0.06186210855571442 0.7031177784930047)
(0.374322428792509 -0.07174292002096086 0.700743284572211)
(0.4478334020655264 -0.07557593265839135 0.6956762008031634)
(0.4484822931153643 -0.07038503147761381 0.6970812492816576)
(0.3737434457027098 -0.07703860015500623 0.6994160656871322)
(0.4361403371169391 -0.05999418978332999 0.7707605847150359)
(0.4354773168131466 -0.06467457175526418 0.7695269100593021)
(0.300787836509929 -0.08999989675612864 0.6732141747520478)
(0.3013811786657065 -0.08403595982959799 0.6746591566786052)
(0.4331791141638115 -0.08009394761551872 0.7652244647050596)
(0.4322981813081194 -0.08577290828824735 0.7635766261539355)
(0.3717736684532285 -0.09464936279693197 0.6948011475421221)
(0.4448523490476525 -0.09925806064953652 0.6888614035519244)
(0.4456775248223278 -0.09283960108488977 0.6907383222470416)
(0.3710276881979651 -0.1011986917190601 0.6930393908987407)
(0.430353842268966 -0.09811677970029825 0.759918740873645)
(0.4313599210373066 -0.09176979079131921 0.7618078573658204)
(0.3724694993367208 -0.08846231945604008 0.6964500841702256)
(0.4471646395229477 -0.08103066575074398 0.6941406299958925)
(0.3731295520213965 -0.08260285701483056 0.6979837359381361)
(0.4464296097672047 -0.08677442059242985 0.6925132757041162)
(0.6685511896379852 -0.08853376754548944 0.8464041699386742)
(0.6701616088260793 -0.08281081964246935 0.8485305205780159)
(0.6730681158086143 -0.07228224553878801 0.8523787668482569)
(0.6716590694816718 -0.07740273012472679 0.8505230822593564)
(0.5859321168255723 -0.08211223984054551 0.7589082572892873)
(0.5762236323480203 -0.07549450684766457 0.8257574952835542)
(0.5066122543372232 -0.07844312229097193 0.7796675286432505)
(0.5870058233116463 -0.07668185658843014 0.7607232353970923)
(0.50564704420659 -0.08400262699874043 0.7779461088433386)
(0.5750306242934191 -0.08084370318587425 0.8239631422599932)
(0.5849099671597807 -0.08784786745108923 0.7569584957254095)
(0.5035480108813725 -0.09608648312880391 0.7741176005941613)
(0.5724010881874927 -0.09247130468583824 0.8199796291819922)
(0.5046441713505176 -0.08987342785514411 0.7760936172707752)
(0.5737638268817841 -0.0864929109619523 0.8220358849610141)
(0.5836969882437033 -0.0939155997320934 0.7548675589128115)
(0.2971649389590973 -0.1255973254634175 0.6642900710752582)
(0.2962921754302666 -0.1341771638169801 0.662119805178483)
(0.4256263952460366 -0.1278456686402596 0.7509557863321322)
(0.426924927686963 -0.1196654609733019 0.753420476568071)
(0.3694037265369525 -0.1155424922977332 0.6891217565759543)
(0.444013754895169 -0.1060699983006436 0.6868138096578421)
(0.3702433922536423 -0.1081494936723966 0.6911450453437602)
(0.4430944020404922 -0.1133148265722866 0.6846509866140548)
(0.4292844839616178 -0.1048530665479687 0.7578936827112824)
(0.4281394391035052 -0.112019135865527 0.75573370012618)
(0.3685255495074337 -0.1234274911521743 0.6869500711851814)
(0.4411542587800818 -0.1293106871559691 0.6798027779450148)
(0.3675893643499596 -0.1318606523042496 0.6846370179767596)
(0.4421682345326947 -0.121044168578279 0.6822911886142402)
(0.6668435197014376 -0.09460936151887506 0.8441236953031113)
(0.6650083795946932 -0.1010723294420199 0.8416928764270459)
(0.6609774184760526 -0.1153519023893938 0.8363096230891038)
(0.663065525724257 -0.1079714140727739 0.8390866544268617)
(0.5753077863028435 -0.1397674465767024 0.7386640712929433)
(0.5641383521067008 -0.1287601606112598 0.807335689781417)
(0.4970753351013209 -0.1337878074558859 0.7619262948854315)
(0.5621365601437496 -0.1376717029447358 0.8042675194485298)
(0.4955126590054785 -0.1430442961811361 0.7589625345153388)
(0.5769949621800347 -0.1307332298993335 0.741856623577175)
(0.5737768431449489 -0.1495357564597818 0.7351871740746814)
(0.5577475549225532 -0.1577536624584435 0.7974524004415461)
(0.4921734691015262 -0.1639017552687903 0.7523656469705441)
(0.5600221279124113 -0.1473063848845201 0.8009683450479681)
(0.4939190743989174 -0.1530507465171208 0.7557697791616126)
(0.5719183008039043 -0.160120824374534 0.7314852733905247)
(0.2943933270689942 -0.1532982106242102 0.657341254419928)
(0.2953708036312997 -0.1433839989283638 0.6598052344064792)
(0.4242515358605393 -0.136627411182797 0.7483168462743754)
(0.4227821834109385 -0.1460831674578258 0.7455051189272401)
(0.3645131476146146 -0.161190771113331 0.6766839029391147)
(0.4367644085119011 -0.1692552082006182 0.6677567431614743)
(0.4379528177417145 -0.1580603379318674 0.6710762227679947)
(0.3633788367890334 -0.1726175825534838 0.6736597287222839)
(0.3655821073273254 -0.1506568884425691 0.6795179674527089)
(0.4401441072534553 -0.1381841242510611 0.6770846786124607)
(0.3666164722531754 -0.1409115062508002 0.6821578985984034)
(0.4390386997922432 -0.1477358521891434 0.6742184813618479)
(0.4195648955229797 -0.1673916893984163 0.7392759316652817)
(0.4212275487298091 -0.1563047399104012 0.7424911554472027)
(0.5799180638825017 -0.1145185931583567 0.7476202553217937)
(0.5660013962378432 -0.1204825689958917 0.8102171971100275)
(0.4985046094565719 -0.1251898934896249 0.7647097979037379)
(0.4998986973373213 -0.1171816304135677 0.7672985408639745)
(0.5677643257812992 -0.1127738910389106 0.8129016602925941)
(0.5783975242338184 -0.1223370052418252 0.7448525662543406)
(0.581190315067569 -0.1072069559503191 0.7502134736780003)
(0.5024138547576603 -0.1026808615207893 0.7719933622752673)
(0.5709571850647559 -0.09881739821336659 0.8177734950411272)
(0.5825523612866406 -0.1003572149429627 0.7526187766089547)
(0.5011749464651349 -0.1096957402279074 0.7697303987671432)
(0.5694056637697985 -0.1055683576680039 0.8154229631749129)
(0.5553452221131414 -0.1691382400847884 0.793660631427355)
(0.4904055413303722 -0.1757250247749058 0.7486864757673195)
(0.5702705406964041 -0.1716565992850482 0.7274190380186588)
(0.4356208262180095 -0.1814517272949838 0.6640962801789103)
(0.3622151444489933 -0.1850674831400443 0.6704025079599457)
(0.4178059957940881 -0.1794719936876839 0.7358212989977133)
(0.5924689162433211 -0.04506045333411635 0.7702302990497825)
(0.5831849788892323 -0.04058031734740396 0.8362272777594471)
(0.5122408208687093 -0.04216161407982143 0.7896877938403285)
(0.5825339660649064 -0.04435754451318118 0.8352558974385527)
(0.5117065795627395 -0.04608596698105226 0.788760444732764)
(0.5930710631809455 -0.04122420850556306 0.7711991452656415)
(0.5918747544437368 -0.04903474407448916 0.7691775619439307)
(0.5810583897569047 -0.05233169842693598 0.8330431312871849)
(0.5105073070224724 -0.0543712570154035 0.7866459005824513)
(0.5818286840227658 -0.04827013871169607 0.8341942105309758)
(0.5911658866501819 -0.05315946551720742 0.7680265640305701)
(0.5111375907818129 -0.050150944709406 0.7877454176938183)
(0.3041583062840095 -0.05369346356325382 0.6813975300535633)
(0.3037789576862268 -0.05821271528449749 0.6804816131368018)
(0.3045090923986248 -0.04934127405913472 0.6822434759012187)
(0.3048307194789779 -0.04513918509825383 0.6830175163192509)
(0.4383227559594444 -0.04304232676475438 0.7748222649453473)
(0.4378423914345916 -0.04704871465938026 0.7739319652830734)
(0.3762587704597464 -0.0527916321180965 0.7051474807206813)
(0.450150610147377 -0.05615925556553329 0.7007365261490907)
(0.3758254354300125 -0.05723522280644704 0.704174484105872)
(0.4506410070074333 -0.05180012614757138 0.7017632123646635)
(0.4367527035945037 -0.05550819668955462 0.771904726779356)
(0.4373206971690969 -0.05119898756691717 0.7729593920563846)
(0.3766566033881268 -0.04851248210078116 0.7060458289215673)
(0.4515001051454868 -0.04354860229253416 0.7035840753019145)
(0.4510820620326816 -0.04760157363359828 0.7027197335926463)
(0.3770250349498627 -0.04438160951404297 0.7068669566184482)
(0.439839105160187 -0.02817192082182076 0.7776335999729016)
(0.4395175271295043 -0.03174220426328062 0.7770397641534752)
(0.3779443715413505 -0.03273588357897156 0.7089157641547352)
(0.4528163936442385 -0.02850297076036165 0.7063230290830951)
(0.4525315396580313 -0.0321163010562035 0.7057485153855448)
(0.3781949176466521 -0.0290555015427021 0.7094675133744467)
(0.3056349408156274 -0.03330284512452884 0.6849506057725693)
(0.3058556340248703 -0.02956174080570603 0.6854762053437942)
(0.3053908558019502 -0.0371347427102305 0.6843660887486972)
(0.3051236378768547 -0.04107458512176578 0.6837238998835456)
(0.4387601859018321 -0.03916462247414056 0.7756362151802745)
(0.439158861198566 -0.0354025000601986 0.7763738296670399)
(0.3776673211835411 -0.03650752030163184 0.7082985258942767)
(0.4518731129924481 -0.03962568125976998 0.7043820934295646)
(0.3773600006500848 -0.04038449012056795 0.7076178479439422)
(0.452222662722972 -0.0358197598619507 0.7050966627780962)
(0.6837048509985654 -0.02542868096410284 0.8663789130024067)
(0.6831938801030772 -0.02865221183720829 0.8657113831294578)
(0.6819874543301476 -0.03535494991013675 0.8641296834153178)
(0.6826235627513739 -0.03195776706243992 0.8649613006267601)
(0.5940736243485636 -0.03390594526569614 0.7728764849559252)
(0.5837758282597381 -0.03692370945937846 0.8371151723459914)
(0.5127191559139507 -0.03836303227665451 0.7905363892822036)
(0.5935724170012315 -0.03750962055467447 0.7720766839431675)
(0.5131631168971851 -0.03467734502854394 0.7913036971683707)
(0.5843151781355909 -0.03337590698301891 0.8379189085287189)
(0.5963147797169729 -0.007691200382891043 0.7764148074101507)
(0.5866314600435852 -0.01064430490641356 0.841378839884801)
(0.5150789938123667 -0.01105755317135864 0.7946011200499902)
(0.5867663699621055 -0.007581263848311088 0.8415797264852949)
(0.5151944771526213 -0.007875712694639381 0.7947892322489142)
(0.5961795343685802 -0.01079772435647221 0.7762318826660213)
(0.5963989809342368 -0.004609669940102374 0.7765386606667239)
(0.5868570705747256 -0.004538318331199692 0.8417150513359063)
(0.5152708452901893 -0.00471588394787617 0.7949166535891161)
(0.6853627035139114 -0.01019171016102294 0.8685500521560179)
(0.6855235069320289 -0.007258789813836399 0.8687601835918032)
(0.6856312751546306 -0.004345153057673604 0.868901277787532)
(0.3066503672090898 -0.008441055726396505 0.6873696882332581)
(0.3065794730872338 -0.01185133743477368 0.6872008303470019)
(0.3066974685991915 -0.005054127041021995 0.6874820061893833)
(0.4408897732245907 -0.01129315454246756 0.7795755592740586)
(0.4409931681617977 -0.008043846078648892 0.7797659295451601)
(0.3791697682040223 -0.00496694335329117 0.7115437085844637)
(0.4539566893331611 -0.004871107996234606 0.7084418120516562)
(0.4410621980447545 -0.00481543845348915 0.7798932032935562)
(0.379113922686686 -0.008293424614274455 0.7114290113168146)
(0.4537837885130421 -0.01140813689428189 0.7081598132185074)
(0.4538892507807374 -0.00812618209557244 0.7083266879430244)
(0.3790289184027085 -0.0116435426938178 0.7112586816488432)
(0.4401222051026161 -0.02467961890307445 0.7781582265222318)
(0.440368722639898 -0.02125559686317499 0.778613160760101)
(0.3786099421648491 -0.02192137067174479 0.7103771453679734)
(0.4530644148948776 -0.02496684766397456 0.7068336921236198)
(0.3784159733739922 -0.0254538892905271 0.7099555737732919)
(0.4532877669094108 -0.02149829161615153 0.7072687312684711)
(0.3062195557548634 -0.02230482444466131 0.6863442647131809)
(0.3060509292005383 -0.02589830957550754 0.6859416260179823)
(0.3063633425429127 -0.01877318852299172 0.6866876250112923)
(0.3064833522065026 -0.01529255502306958 0.6869730405008994)
(0.4407516521100323 -0.01457197237688717 0.7793207934671669)
(0.4405780502360234 -0.01788935214781862 0.7790005452020127)
(0.3787759902925191 -0.01844843277424654 0.7107346892404175)
(0.4536462477639465 -0.01472618607853203 0.7079313543653485)
(0.3789158824972804 -0.01502570486148199 0.7110279608852813)
(0.4534795190096741 -0.01808703384701585 0.7076364673322545)
(0.6851469382282932 -0.0131516374404594 0.8682676705439947)
(0.6848741572387123 -0.01614626048598149 0.8679112225554083)
(0.6841534119724482 -0.02227577986093779 0.8669680901965016)
(0.6845437662735396 -0.01918513133547062 0.8674779338790595)
(0.5955341483388221 -0.0203474633919856 0.7752677057093063)
(0.5142247769020902 -0.0241723640011 0.7931565132494299)
(0.5856112845496709 -0.02326453491249324 0.8398575630775396)
(0.5952213319388187 -0.02362987776522009 0.7747853693452514)
(0.514499904086662 -0.02081784587656582 0.7936258016629105)
(0.585941813809318 -0.02003659633538307 0.8403495030497625)
(0.5957841335680306 -0.01711855699269666 0.7756644474306251)
(0.5864504528305318 -0.01373542045645099 0.8411087918269522)
(0.5149253519717122 -0.01426933327826901 0.7943470409788304)
(0.5960080776638478 -0.01393820399397545 0.7759887449615076)
(0.5147312236309518 -0.01751968699972673 0.7940228600343194)
(0.5862206245109524 -0.01686290249232986 0.8407664925212055)
(0.670801314464164 -0.007498935259214253 0.7635778997504792)
(0.7396744922173377 -0.007208193663915398 0.7759595445755308)
(0.7049284988480129 -0.01029351264896421 0.7436158601530553)
(0.6833708504596482 -0.01038050405781965 0.8172221150896543)
(0.7050238651765137 -0.00733408692831708 0.7437189138099651)
(0.6835190976727028 -0.007393825325686929 0.8174062176581089)
(0.6706939219950485 -0.0105331217942503 0.7634178229453822)
(0.670277630753029 -0.01669698258676209 0.762892669189131)
(0.7046680742965846 -0.01328759652842907 0.7433111920455612)
(0.7390243030597604 -0.01602212916513876 0.7752919000266442)
(0.6831632604323767 -0.01339787073350547 0.8169581665938143)
(0.7045156721514428 -0.01629764170787514 0.743117749722855)
(0.670453888833498 -0.01359318932030226 0.7631912922076654)
(0.6829144377145617 -0.01645152337696467 0.8166336142340778)
(0.6641013734229534 -0.06036763536829038 0.7524815911012898)
(0.6988586033453658 -0.05457973853598512 0.7336816114485198)
(0.7315398289220425 -0.05790508635507191 0.7647876979704905)
(0.6764941014980248 -0.05519704882908542 0.8073863080832906)
(0.6755511916045694 -0.05949821930483213 0.8060353121293622)
(0.6983327691669644 -0.0588133283347904 0.7327848395407239)
(0.6647475815354763 -0.05600570381244381 0.7538319186292545)
(0.5755273312945286 -0.06258528759218283 0.6907656804488751)
(0.5653022310401474 -0.05857347934670418 0.6575544703463816)
(0.5295275667788073 -0.0645265055979487 0.6498220546161656)
(0.5162051209246428 -0.0593834567560787 0.7047113329939371)
(0.565006646816265 -0.0631254558478226 0.6567224661188844)
(0.5156190615219464 -0.06400990368945451 0.7035005556876007)
(0.5761770625114812 -0.05807551895470131 0.6916475541404978)
(0.6631181960984717 -0.06492489072804136 0.7509499842374453)
(0.6734417644010821 -0.06871175688605032 0.8029079714402698)
(0.7305571531666769 -0.06229248768384987 0.762781136227298)
(0.6966084989341619 -0.06789299881530568 0.7296693032591197)
(0.6745267041436166 -0.06399793632596891 0.8044772376961898)
(0.6972065640091658 -0.06325792432396711 0.7307154497852334)
(0.6623778370605213 -0.06970252237907021 0.7493775696171192)
(0.5749143252639288 -0.06732191666063864 0.6888773232399674)
(0.5143332221691157 -0.07391974610908468 0.7006514842295504)
(0.5290548436441583 -0.06939581492817694 0.6484222276983388)
(0.5640439439830818 -0.07286002402094456 0.6538428469064388)
(0.5643706927358386 -0.06787932601519787 0.6548159622114504)
(0.5149998012713214 -0.06885005267973922 0.7020628336376487)
(0.5741779359294664 -0.07226126713876255 0.6878498401876999)
(0.5719197262567461 -0.08872644514496526 0.6818986383135249)
(0.5618957451109855 -0.09551974781622424 0.6465853142336542)
(0.5112802087591229 -0.09704274959418172 0.6935174970203645)
(0.5270604928179519 -0.09143844597932227 0.6418475647357668)
(0.5121153345756942 -0.09077964291596585 0.69540677854264)
(0.5710057894709148 -0.09482166732436399 0.6805238305969452)
(0.5622717047532179 -0.08938972777666943 0.6479002481690234)
(0.6592076597220102 -0.08557659494815657 0.7437114719261702)
(0.6925130095867473 -0.08904746421715262 0.7218448691654596)
(0.7257629759736283 -0.08210763402866779 0.7552837807649239)
(0.6682999505390977 -0.09022120827576902 0.7951218107468665)
(0.6932626164412028 -0.08333243296170002 0.7232504884367603)
(0.6697052290861707 -0.08439281695822169 0.7972066948814742)
(0.6582601687421937 -0.09147442693335729 0.741609045776221)
(0.6604330092934495 -0.08000155829289772 0.7457752465441044)
(0.6722711880582681 -0.07366696865582242 0.8011021973586563)
(0.6953423707734919 -0.07278164206938283 0.7272598580030868)
(0.7270173146598085 -0.07674085862708845 0.7579909868774398)
(0.6946695226190881 -0.07790396747742825 0.7260456826382294)
(0.6612736525757174 -0.07471891252410384 0.7475962276604579)
(0.6710326782965076 -0.07888280526383425 0.7992901731739814)
(0.5726699567288629 -0.08293477239878611 0.6844572986923443)
(0.5136374460034571 -0.07924872137646863 0.6989791199516997)
(0.5633549602575834 -0.07808761311199673 0.6516185664427373)
(0.5275774331275372 -0.0854881406935553 0.643749289330927)
(0.5734948906499228 -0.07747410959838726 0.6856477412053038)
(0.5128875413612964 -0.08485632669105654 0.6973434119593167)
(0.5630006263865248 -0.08358741599970866 0.6504860179580436)
(0.6487821008538185 -0.1454197426876261 0.7210313827820084)
(0.6819271767690902 -0.15117296986253 0.6970598232418723)
(0.712352199583137 -0.1395592497090612 0.7317463596216534)
(0.6535734527567985 -0.1538418357239194 0.7711075424224654)
(0.6558088186488271 -0.1436692643083569 0.7747778926822081)
(0.6829507543571114 -0.1413201891876707 0.6996396863305894)
(0.6473530195238307 -0.1556467205588677 0.7172456345099697)
(0.5643409601178774 -0.1506748113337583 0.659823977922637)
(0.5578181678305716 -0.1618189985347243 0.6234112363022081)
(0.5230425706596952 -0.1550871161923404 0.6209829035497969)
(0.5034266775889251 -0.1652669942471967 0.6712145001636537)
(0.5580977594649076 -0.1513214828981096 0.6258567334735112)
(0.504553505592613 -0.1543777004396469 0.6746036086663788)
(0.5631615513558472 -0.1612248754490737 0.6573536449017434)
(0.6503764544860293 -0.1359565400384483 0.7247776540581784)
(0.6598841957732258 -0.1255982339255587 0.781632903086157)
(0.7141895702326091 -0.1304468166432569 0.7366924471778774)
(0.6857788258605063 -0.1237074172054153 0.7069611861018397)
(0.6578830165704335 -0.1342797274093702 0.7784620606221618)
(0.6848077650027576 -0.132153823181985 0.7047633460278337)
(0.6516811586851635 -0.1272086541895404 0.728023560289535)
(0.5652195632599356 -0.1408660571707103 0.6645439032679644)
(0.5066269266915927 -0.1350139182685343 0.6809998689801097)
(0.5232226883760664 -0.1450403189487415 0.6245041286027591)
(0.558971738589077 -0.1325475343799689 0.6327148103648079)
(0.5586182743902971 -0.1415657306288558 0.6306395515150872)
(0.5055521761925534 -0.144317395747275 0.6780889854899388)
(0.5663646459780559 -0.1318367546639933 0.6666640393506337)
(0.5691937600386688 -0.1081918006201845 0.6759680206089373)
(0.5611475654708529 -0.1020220820273354 0.643582290153643)
(0.5104337050482805 -0.1036922270625578 0.6912788420355929)
(0.5253762638474947 -0.1114784463393611 0.6355574919632756)
(0.5701945599702021 -0.1013199970643796 0.6775541175426468)
(0.5607597781302537 -0.1089207439764372 0.6420555300104686)
(0.5095130644572431 -0.1107582155585595 0.6890988738113306)
(0.6558558248684537 -0.1043836330343414 0.7367964297076225)
(0.6909678780887261 -0.09513482770570285 0.7186059391936409)
(0.7212752089828783 -0.1001372569174993 0.748886528287091)
(0.6668038452329452 -0.09641008282182144 0.7927233439136538)
(0.6901408589793678 -0.1015746038858746 0.7169790975432385)
(0.6569168344810909 -0.09773215588791187 0.7392216483391203)
(0.6652168878333521 -0.1029904720008395 0.7903282042830895)
(0.6544035989381668 -0.1114818140493347 0.7340328413371965)
(0.6617545963161261 -0.1175286392411758 0.7848153415796767)
(0.719727358990975 -0.1069709756075397 0.7452527742748742)
(0.6875636988107814 -0.1158049515413807 0.7113351397771811)
(0.6884661716748445 -0.1084718092731819 0.7132217775198662)
(0.6635397436771134 -0.1100164356257623 0.7875678593105333)
(0.6532229496212951 -0.1190647134422464 0.7312320406551033)
(0.5683333858188562 -0.1155589251087313 0.6725175608438417)
(0.5075959757829427 -0.1263593766181721 0.6839955875984107)
(0.524911156043734 -0.1190383592632195 0.6329861462641175)
(0.5596412239625579 -0.1241246094784046 0.6367880676647718)
(0.5600249362239035 -0.1162810903037676 0.6385639806200581)
(0.5085985203905323 -0.118300737429808 0.686511311988701)
(0.5672527510182183 -0.1233895636607049 0.6706865698146106)
(0.6442304460096386 -0.1789436582733756 0.7083724115139608)
(0.6800696615990607 -0.1619540454114911 0.691000132396473)
(0.6512901925367375 -0.1649315200155502 0.7668130604454747)
(0.705756939615316 -0.1717363875778503 0.7200410430533535)
(0.6488052342588256 -0.1770450679279251 0.7625316529519579)
(0.6457749089010453 -0.1668031566396139 0.7128316469291153)
(0.6790273582806026 -0.1736138269459805 0.6879368798322468)
(0.5612016011915453 -0.1852935751318528 0.6488513729442446)
(0.5575835756237861 -0.1732712234235157 0.617737604662743)
(0.5024437492148838 -0.177135115966501 0.6671242245625131)
(0.5219100716703488 -0.1905560566499968 0.6092687677973873)
(0.562357472781 -0.1727788248679775 0.6517583981327348)
(0.5574523317811125 -0.1856600436862679 0.6148187844965927)
(0.5013055133370845 -0.1900836165011858 0.6631389139449818)
(0.6661694204001516 -0.04780607856929781 0.7562898183832414)
(0.6998475690901578 -0.05050069917405704 0.7354472611550558)
(0.6773821735340799 -0.05107175263836908 0.808721066975049)
(0.734239602844969 -0.04586872817349753 0.7683150189033426)
(0.6781930416980122 -0.04710950367023072 0.8098738208754804)
(0.6656118170927018 -0.05182619101314149 0.7551400860561335)
(0.7003038553304013 -0.0465975433775871 0.7362096101098965)
(0.5772850316074373 -0.04957500078453459 0.6940072626583116)
(0.5658770577039187 -0.05421047861968226 0.6591783426305193)
(0.5167492875047901 -0.0549461852821394 0.7059391697462046)
(0.5307276707823758 -0.05110897483215671 0.6532391918998369)
(0.5661393578082281 -0.0500120324544749 0.6598842837075592)
(0.576719300486656 -0.05373118369110635 0.6932565814200778)
(0.5172582382372212 -0.05068454615370981 0.7069696610143225)
(0.6669178081802988 -0.04393630740369885 0.7573956350206661)
(0.6796404994838068 -0.03960561705267236 0.8119757213252494)
(0.7349759991434318 -0.04214234200658648 0.7697617711912684)
(0.7015483973497002 -0.03918583503776998 0.73833997019081)
(0.6789531985388625 -0.04329104525167042 0.8110050334172302)
(0.7011591119782449 -0.04281848367483986 0.7377002311039904)
(0.6673916437351884 -0.04019562356701502 0.7583619068739192)
(0.5777570659015887 -0.04555254302730216 0.6953643923210576)
(0.5181647147391232 -0.04261398124454772 0.7088744053247091)
(0.5311161152657685 -0.04697338799957623 0.6542438656863921)
(0.5668761834561881 -0.04206133568522594 0.6618451265736823)
(0.5666482835617207 -0.04597017519527651 0.6612535225626617)
(0.5177295360404385 -0.04657770640207668 0.7080081235569511)
(0.5782417217842788 -0.04168553045564419 0.6959953498566066)
(0.5793890801719995 -0.03073919415654793 0.6985483526125353)
(0.5195613004403712 -0.02789284692374339 0.711724115704355)
(0.5680448293424005 -0.02754935475991413 0.6647631177634178)
(0.5323156188811546 -0.03170233758178418 0.6573134730429958)
(0.5192636126245428 -0.03142760189473705 0.7111547857070126)
(0.5678840333009707 -0.0310362278636485 0.664380493449262)
(0.5797224245689458 -0.02729026557667797 0.6989616034749307)
(0.668950759596036 -0.02964539307745388 0.7608224892338964)
(0.6818355280581467 -0.02591877859379956 0.8151274697474998)
(0.7034608486080857 -0.0256595357859449 0.7415194151635351)
(0.7374390905911803 -0.02843386803229989 0.7732165990677509)
(0.7031982004905023 -0.02889836972404002 0.7411024855695956)
(0.6813758397972611 -0.02920451654479379 0.8144871937882546)