/*--------------------------------*- C++ -*----------------------------------*\
  =========                 |
  \\      /  F ield         | OpenFOAM: The Open Source CFD Toolbox
   \\    /   O peration     | Website:  https://openfoam.org
    \\  /    A nd           | Version:  7
     \\/     M anipulation  |
\*---------------------------------------------------------------------------*/
FoamFile
{
    version     2.0;
    format      ascii;
    class       volVectorField;
    location    "0";
    object      grad(Phi);
}
// * * * * * * * * * * * * * * * * * * * * * * * * * * * * * * * * * * * * * //

dimensions      [0 1 -1 0 0 0 0];

internalField   nonuniform List<vector> 
12691
(
(-0.9999470980251141 -2.220039983949276e-05 9.650925404064242e-05)
(-0.9999477107637141 -1.744502333290458e-05 7.557823482940653e-05)
(-0.9999486395552628 -1.312447238512358e-05 5.669669807368698e-05)
(-0.9999495692292297 -9.138728136459945e-06 3.938990402073267e-05)
(-0.9999502921064164 -5.389509678629379e-06 2.31940793736059e-05)
(-0.9999507166836963 -1.780950613735745e-06 7.658396380440327e-06)
(-0.9999427601846446 -1.700579201355461e-05 0.0001236868266806897)
(-0.9999430757313239 -1.371213552173835e-05 9.9339991093358e-05)
(-0.9999440849728145 -1.076119339074341e-05 7.769000773588111e-05)
(-0.9999453277210516 -8.087906200156107e-06 5.821881039350412e-05)
(-0.9999464898741044 -5.627553210780138e-06 4.041541133988803e-05)
(-0.9999473659681268 -3.317203610174036e-06 2.378548011960141e-05)
(-0.999947872868224 -1.095897757584196e-06 7.851623563458887e-06)
(-1.000006918497202 -4.387449386091311e-05 0.0002107355616794721)
(-0.9999923044249001 -3.814521087646772e-05 0.0001821360322695757)
(-0.9999822139328736 -3.271578108660473e-05 0.0001553158694485559)
(-0.9999755060425337 -2.766975504173346e-05 0.0001306362822743878)
(-0.9999712423953695 -2.302915577619045e-05 0.0001081614003618846)
(-0.9999686817884167 -1.877665375080365e-05 8.776713933535272e-05)
(-0.9999672571686788 -1.487111701815342e-05 6.921707417394392e-05)
(-0.9999665472752688 -1.125792635661477e-05 5.221239626063527e-05)
(-0.9999662494819539 -7.875441711589351e-06 3.642291474212447e-05)
(-0.9999661569568331 -4.658785532309446e-06 2.150489168287089e-05)
(-0.9999661413053729 -1.541843418666359e-06 7.110161146224458e-06)
(-1.000002206862713 -2.732160704446509e-05 0.0002187982409373173)
(-0.9999877862997504 -2.36956636179292e-05 0.0001886288491674061)
(-0.9999779888101318 -2.027892810187497e-05 0.0001604932795174089)
(-0.9999716120451524 -1.711887247478872e-05 0.0001347267776998937)
(-0.9999676776574978 -1.422488312508863e-05 0.0001113597310108523)
(-0.9999654197944573 -1.158251052436349e-05 9.023318856610453e-05)
(-0.9999642571286297 -9.1632426357792e-06 7.107799392042683e-05)
(-0.9999637607644795 -6.930862295025094e-06 5.356598700003797e-05)
(-0.9999636244289746 -4.845348487052419e-06 3.734112010722231e-05)
(-0.9999636398358851 -2.865093354957831e-06 2.203682007845467e-05)
(-0.9999636826750606 -9.480142246006003e-07 7.284351432258909e-06)
(-1.000032859313102 -3.477908119925028e-05 0.0001778915978006723)
(-1.000017537558819 -3.07053854226452e-05 0.0001559267260301493)
(-1.000006074295986 -2.670106981055962e-05 0.0001346363515435838)
(-0.9999976797522995 -2.286045768684617e-05 0.0001144854155705832)
(-0.9999916594422347 -1.922983728697149e-05 9.568264336266701e-05)
(-0.9999874332200942 -1.582156986312819e-05 7.82573172972778e-05)
(-0.9999845353190414 -1.262506954911533e-05 6.2118470294937e-05)
(-0.9999826049346747 -9.614842221198185e-06 4.709788972147816e-05)
(-0.9999813734303994 -6.75609467584496e-06 3.297986876768219e-05)
(-0.9999806517440692 -4.008491347569152e-06 1.952090470701503e-05)
(-0.9999802934903349 -1.328590147257171e-06 6.462247351201123e-06)
(-1.000029592884823 -2.159538981416626e-05 0.0001842071138154701)
(-1.000014276214185 -1.902804454035667e-05 0.0001611268619205025)
(-1.00000291788136 -1.651709639966381e-05 0.000138865885930767)
(-0.9999946825244219 -1.411914040930841e-05 0.0001178857728846485)
(-0.999988842830533 -1.186069572265935e-05 9.838187005990339e-05)
(-0.9999847961018818 -9.747347182731637e-06 8.036551073898163e-05)
(-0.9999820617172935 -7.770723032562253e-06 6.372643322229668e-05)
(-0.9999802694832153 -5.913523764683866e-06 4.82774968817051e-05)
(-0.999979145082702 -4.152978660452627e-06 3.378517736987613e-05)
(-0.9999784961928257 -2.463122212773504e-06 1.998941932992899e-05)
(-0.9999781777814829 -8.162381873818469e-07 6.615998222712358e-06)
(-1.000027893299336 -7.327382091851064e-06 0.0001874790955187962)
(-1.000012586222739 -6.449335968520361e-06 0.0001638141801752309)
(-1.000052273837711 -2.767058031389229e-05 0.0001481559166050659)
(-1.000037104501381 -2.477177372835106e-05 0.0001314642262625148)
(-1.000025135290135 -2.181563566034283e-05 0.0001147680815136493)
(-1.000015850954578 -1.889025558540955e-05 9.85405152220142e-05)
(-1.000008764354295 -1.604866354818146e-05 8.304974746722765e-05)
(-1.000003444681951 -1.331710454833595e-05 6.8409150371739e-05)
(-0.999999529432954 -1.070221492008946e-05 5.461988699802184e-05)
(-0.9999967265411365 -8.196788404946997e-06 4.160477778319761e-05)
(-0.9999948113592905 -5.784180558623866e-06 2.923388354412876e-05)
(-0.9999936216361575 -3.441563596499992e-06 1.734316433263866e-05)
(-0.9999930061090957 -1.142299338537866e-06 5.747849786618862e-06)
(-1.000050006894385 -1.713708565891221e-05 0.0001530597561265536)
(-1.000034746857202 -1.531704932461891e-05 0.0001355815471846955)
(-1.000022774223776 -1.346945804328382e-05 0.0001181763832048243)
(-1.000013541918733 -1.164809476086671e-05 0.0001013238435917271)
(-1.000006537929006 -9.884702806700217e-06 8.528958862905903e-05)
(-1.000001312925468 -8.194368321326546e-06 7.0179146061249e-05)
(-0.999997491142982 -6.5801052524689e-06 5.598312547437877e-05)
(-0.9999947713508982 -5.036488084364384e-06 4.261268515970033e-05)
(-0.9999929227950103 -3.552392869609218e-06 2.992601326031239e-05)
(-0.9999917793428589 -2.112997670338043e-06 1.774740887789029e-05)
(-0.9999911894609201 -7.012217699660778e-07 5.880768777007807e-06)
(-1.000048831035131 -5.806782050071394e-06 0.0001555933364275117)
(-1.000033528564455 -5.185606771335933e-06 0.0001377044507420078)
(-1.000021558059435 -4.556473838235317e-06 0.0001199304320662926)
(-1.000012355818222 -3.937520973205503e-06 0.000102753856679074)
(-1.00004017385385 -1.790134647559593e-05 9.605286655261095e-05)
(-1.00003053088399 -1.566312387414925e-05 8.316924168083218e-05)
(-1.000022866927258 -1.342993989384715e-05 7.06109708506924e-05)
(-1.000016878432723 -1.123287326709744e-05 5.852759750469471e-05)
(-1.000012296990651 -9.087377306034374e-06 4.697224287737657e-05)
(-1.000008897581109 -6.997166616374481e-06 3.59266095575197e-05)
(-1.000006501530045 -4.957454024725811e-06 2.532143076554742e-05)
(-1.000004976564747 -2.9575551795647e-06 1.505260615801085e-05)
(-1.000004174792646 -9.829635951350875e-07 4.993767085572332e-06)
(-1.000065095660768 -1.369483395882089e-05 0.0001253142058304722)
(-1.000050405421854 -1.239923465371564e-05 0.0001122084167814316)
(-1.000038399074367 -1.103328079429175e-05 9.876076962440836e-05)
(-1.000028743847376 -9.643429704006754e-06 8.541124470553601e-05)
(-1.000021099838689 -8.260734547686933e-06 7.243715754129578e-05)
(-1.000015149224435 -6.903759998207973e-06 5.998581320088768e-05)
(-1.000010612694656 -5.581395669401277e-06 4.810516588685144e-05)
(-1.00000725720658 -4.295313824620505e-06 3.677009997117326e-05)
(-1.000004898404565 -3.041994106867905e-06 2.590370208339865e-05)
(-1.000003400196041 -1.814335268348961e-06 1.539388059454894e-05)
(-1.00000261353723 -6.029270184824707e-07 5.106177977064056e-06)
(-1.000064279121638 -4.634681700985744e-06 0.0001272587292066295)
(-1.000049522802257 -4.19332118840344e-06 0.0001138660566307239)
(-1.000037486944024 -3.728964596250878e-06 0.0001001520519433699)
(-1.0000278276514 -3.257325233472827e-06 8.656154119844463e-05)
(-1.000020195749295 -2.788839163705731e-06 7.337294524710327e-05)
(-1.000014266077317 -2.329683365878374e-06 6.073223395588552e-05)
(-1.000034286057192 -1.131442891377809e-05 5.857039965644885e-05)
(-1.000027927650209 -9.532970669608952e-06 4.880845374284952e-05)
(-1.000022937599042 -7.759713428735266e-06 3.934672725829142e-05)
(-1.000019150596538 -6.004503082438579e-06 3.020114262339752e-05)
(-1.000016430862811 -4.270026985843741e-06 2.134251802644249e-05)
(-1.000014675287826 -2.553792281064713e-06 1.270964776234727e-05)
(-1.000013743807069 -8.498285499672682e-07 4.220185229723539e-06)
(-1.000076145837594 -1.106390316115631e-05 0.000100676334113232)
(-1.000062248630416 -1.013422847383735e-05 9.096653221094836e-05)
(-1.000050528437712 -9.115012023796291e-06 8.072560078283349e-05)
(-1.000040805659819 -8.044553148750962e-06 7.032781541890111e-05)
(-1.000032871411636 -6.95073733065944e-06 6.002872199721994e-05)
(-1.000026513916824 -5.852446816398597e-06 4.998349483261214e-05)
(-1.000021535988827 -4.761171444109467e-06 4.026658368260953e-05)
(-1.000017765724123 -3.682582264771145e-06 3.089018029817659e-05)
(-1.000015062450793 -2.61795167202718e-06 2.182035309687355e-05)
(-1.000013319635683 -1.565382414803217e-06 1.299057033033668e-05)
(-1.000012395651895 -5.208565949057093e-07 4.312859150571192e-06)
(-1.000075574948708 -3.740118119484363e-06 0.0001021509377014338)
(-1.000061603337335 -3.423955865500377e-06 9.224203316968637e-05)
(-1.000049837736134 -3.078009847684995e-06 8.181057094684345e-05)
(-1.000040091321587 -2.715245367349686e-06 7.123573689014748e-05)
(-1.000032148753518 -2.345063803998021e-06 6.077523920554574e-05)
(-1.000025792823469 -1.973795907571811e-06 5.058444211029949e-05)
(-1.000020821981104 -1.605259357918265e-06 4.073665239318639e-05)
(-1.00001706095726 -1.241300165902989e-06 3.124206979057206e-05)
(-1.000014366592958 -8.822783450831707e-07 2.206426352631356e-05)
(-1.000031568848596 -6.696463008036157e-06 3.184591546031451e-05)
(-1.000027544797813 -5.205125797047533e-06 2.451643808792731e-05)
(-1.00002461772115 -3.714138716923395e-06 1.736377844163302e-05)
(-1.000022710409429 -2.226376704533423e-06 1.03555678564881e-05)
(-1.000021692314077 -7.41716853534561e-07 3.441061360807795e-06)
(-1.000084134848948 -9.083241775825308e-06 7.872160854309525e-05)
(-1.000071068681375 -8.406735665207492e-06 7.165690744292579e-05)
(-1.000059774888187 -7.634301557420194e-06 6.402072340252175e-05)
(-1.000050179900403 -6.796892862554205e-06 5.611327943302409e-05)
(-1.000042170742154 -5.918597297730516e-06 4.815117801677398e-05)
(-1.000035617153404 -5.017178948535909e-06 4.027680927351225e-05)
(-1.000030387913281 -4.104918419879182e-06 3.257028691132043e-05)
(-1.000026362231115 -3.189567016999221e-06 2.506183981175706e-05)
(-1.000023437286317 -2.275304748030546e-06 1.774347267651396e-05)
(-1.000021532957628 -1.363643037292156e-06 1.057937212976284e-05)
(-1.000020516996409 -4.542558097197989e-07 3.514988402330725e-06)
(-1.000083730823666 -3.067462931182709e-06 7.981851782144629e-05)
(-1.000070589610681 -2.837765005545306e-06 7.261719238065438e-05)
(-1.00005924346517 -2.575963669379809e-06 6.484668957678227e-05)
(-1.000049614244989 -2.292537454232848e-06 5.68114505205878e-05)
(-1.000041584590317 -1.99561734727e-06 4.873037741813385e-05)
(-1.000035020327944 -1.691178130527723e-06 4.074668099109251e-05)
(-1.000029786926963 -1.383329792595179e-06 3.294021842782031e-05)
(-1.000025760924483 -1.074646012861244e-06 2.534021697859227e-05)
(-1.00002283744527 -7.664914747351993e-07 1.793718894181854e-05)
(-1.000020934886714 -4.593295419232819e-07 1.069352200641729e-05)
(-1.000019920147274 -1.530037628645701e-07 3.552688927853944e-06)
(-1.000031097478408 -3.281560412976979e-06 1.342319800464237e-05)
(-1.000029095244803 -1.971000103641689e-06 8.014964175201942e-06)
(-1.000028021992935 -6.572943721356539e-07 2.664881288971698e-06)
(-1.000089786518119 -7.629771103459413e-06 5.896813345838843e-05)
(-1.000077474547168 -7.125590146646354e-06 5.398909508019614e-05)
(-1.000066627195294 -6.525367307693622e-06 4.849365912783084e-05)
(-1.000057241974683 -5.854138671259819e-06 4.270852846568161e-05)
(-1.000049273470015 -5.13249070184407e-06 3.680383337060329e-05)
(-1.000042651268326 -4.376624456694079e-06 3.089737244969476e-05)
(-1.000037294350055 -3.598725068370717e-06 2.506147094966679e-05)
(-1.000033122067438 -2.807505787507992e-06 1.933091548939249e-05)
(-1.000030062149464 -2.008834290877738e-06 1.371097127675069e-05)
(-1.00002805628011 -1.206383500959059e-06 8.184943483371113e-06)
(-1.000026981503866 -4.02277860680892e-07 2.721087929555004e-06)
(-1.000089494251016 -2.574326965615674e-06 5.975662205905281e-05)
(-1.000077109873731 -2.403395978644239e-06 5.468600832675606e-05)
(-1.000066207968774 -2.200236649968054e-06 4.909843199262975e-05)
(-1.000056783216322 -1.973321019067593e-06 4.322386594274103e-05)
(-1.000048787264816 -1.729600544154485e-06 3.723443058954209e-05)
(-1.00004214691671 -1.474531902391017e-06 3.124887176105325e-05)
(-1.000036778675974 -1.212206062708143e-06 2.533965995414279e-05)
(-1.000032599809228 -9.455356207403732e-07 1.954114058511474e-05)
(-1.000029536384179 -6.764690826302961e-07 1.385772829894062e-05)
(-1.000027528852283 -4.062126834902477e-07 8.271606385742662e-06)
(-1.000026453401835 -1.354491515956273e-07 2.749740866497625e-06)
(-1.000032746567249 -5.952770806623287e-07 1.895612770769833e-06)
(-1.000093620831592 -6.612569834602382e-06 4.091699118687786e-05)
(-1.000081917244075 -6.221626958582009e-06 3.762358083187115e-05)
(-1.000071458332181 -5.736940484378184e-06 3.392798796060853e-05)
(-1.000062287219938 -5.1791989691835e-06 2.998743010863228e-05)
(-1.000054403725171 -4.566207485969148e-06 2.592319865867228e-05)
(-1.000047778885911 -3.912702499433811e-06 2.182222209950445e-05)
(-1.00004236745799 -3.230447739737876e-06 1.774074664492956e-05)
(-1.000038118105776 -2.528520380424184e-06 1.37091044145686e-05)
(-1.000034981328752 -1.81371579071739e-06 9.736850831770611e-06)
(-1.000032915336809 -1.091019443677459e-06 5.817838301206149e-06)
(-1.000031805044287 -3.641119361574878e-07 1.935023817322515e-06)
(-1.000093401013532 -2.22946868214753e-06 4.144702387294117e-05)
(-1.000081628450392 -2.09710936684476e-06 3.809541650346246e-05)
(-1.000071114969782 -1.933252211991495e-06 3.434017101482552e-05)
(-1.000061901960728 -1.744894332954006e-06 3.034079069677845e-05)
(-1.000053987262862 -1.538047558715014e-06 2.622005113901664e-05)
(-1.000047339911816 -1.317678079127818e-06 2.206568404495894e-05)
(-1.000041912791395 -1.087741232812396e-06 1.793419407762291e-05)
(-1.000037652925126 -8.51280452283677e-07 1.38557578583023e-05)
(-1.000034509462834 -6.105656797243666e-07 9.839475473612588e-06)
(-1.000032439587984 -3.67254140773725e-07 5.878537927313318e-06)
(-1.000031327386335 -1.225616317836591e-07 1.955108854324028e-06)
(-1.000095993918082 -5.967885695367267e-06 2.407163956017001e-05)
(-1.000084713157653 -5.645362205059498e-06 2.219703529589242e-05)
(-1.000074536065685 -5.231591784739582e-06 2.006920098658948e-05)
(-1.000065532649317 -4.744440378345955e-06 1.778031914831873e-05)
(-1.000057730292596 -4.19981986487227e-06 1.540278136658791e-05)
(-1.000051125950769 -3.611382456670641e-06 1.298959271253389e-05)
(-1.000045697221943 -2.990469140352383e-06 1.057611897424772e-05)
(-1.000041411816673 -2.346247636517411e-06 8.182594864577394e-06)
(-1.00003823524651 -1.68598318041652e-06 5.816966365808709e-06)
(-1.000036136743803 -1.015396699029915e-06 3.477793809419447e-06)
(-1.000035006846318 -3.390768928028138e-07 1.157072537059357e-06)
(-1.000095817422754 -2.011020749584025e-06 2.437680711144506e-05)
(-1.000084470542763 -1.90194687076637e-06 2.246999148880499e-05)
(-1.000074239545502 -1.762195156291921e-06 2.030870670005821e-05)
(-1.000065193340479 -1.597805010351915e-06 1.798647636044779e-05)
(-1.000057357910991 -1.414147950876735e-06 1.557659639635928e-05)
(-1.000050728697238 -1.215825594732477e-06 1.313259434812434e-05)
(-1.000045281813811 -1.006653780845659e-06 1.069004487445567e-05)
(-1.000040983624925 -7.897106770226554e-07 8.269147420320702e-06)
(-1.000037798504822 -5.674293580302415e-07 5.877631670450401e-06)
(-1.000035694803425 -3.417199186864389e-07 3.513714458196626e-06)
(-1.000034562260643 -1.141091946146629e-07 1.1689648371639e-06)
(-1.000097127390785 -5.65532674843773e-06 5.296282155156955e-06)
(-1.000086062626883 -5.364996875474369e-06 4.890723801360578e-06)
(-1.000076032788191 -4.984926187390115e-06 4.42765828274099e-06)
(-1.000067120297402 -4.531597508179608e-06 3.927316211762996e-06)
(-1.000059365548979 -4.019970697518581e-06 3.405723883629751e-06)
(-1.000052777929103 -3.463129215534211e-06 2.87473739054081e-06)
(-1.000047346134332 -2.872164897710786e-06 2.342381507639666e-06)
(-1.000043047228121 -2.256248600259604e-06 1.813368496281326e-06)
(-1.000039854158417 -1.622838285121182e-06 1.289702874488606e-06)
(-1.000037741655417 -9.779823928468028e-07 7.713102573801846e-07)
(-1.000036603171217 -3.266858495258548e-07 2.566563185504438e-07)
(-1.000096971147113 -1.905145779937971e-06 5.362696837707336e-06)
(-1.000085841840104 -1.807022764584264e-06 4.950269624406895e-06)
(-1.000075758610451 -1.678720836186397e-06 4.480022687170308e-06)
(-1.000066803074971 -1.525810112786869e-06 3.972480692041347e-06)
(-1.000059014497804 -1.353339946774666e-06 3.443871749982062e-06)
(-1.000052400983035 -1.165720430612151e-06 2.906171939450974e-06)
(-1.000046949932856 -9.666845508687943e-07 2.367457903097877e-06)
(-1.00004263721023 -7.593133171797622e-07 1.832440140009225e-06)
(-1.000039434732688 -5.461068998722762e-07 1.303081154612059e-06)
(-1.000037316421489 -3.290880082970475e-07 7.79235996249915e-07)
(-1.000036174949668 -1.099260220883427e-07 2.592810209560562e-07)
(-1.000108293256807 -6.179965970076755e-06 2.558267865466209e-05)
(-1.000109130738195 -5.838548108572995e-06 5.620315426299333e-06)
(-1.000109050730306 -1.967214081205529e-06 5.692896798261855e-06)
(-0.9999472592584765 -2.74895714663236e-05 0.0001199642235446896)
(-0.9999437942063261 -2.070400322842581e-05 0.0001512305599296511)
(-1.000027441619352 -4.972893313820893e-05 0.0002403098220738459)
(-1.000022725251749 -3.105157297648276e-05 0.0002502029711599096)
(-1.000020250694762 -1.056684368518393e-05 0.0002553625178224679)
(-1.000052943730727 -3.876321344319572e-05 0.0001997180892805202)
(-1.000049832565102 -2.412139199287469e-05 0.0002072786166377991)
(-1.000048206411987 -8.193746133554211e-06 0.0002112061590551607)
(-1.000069149879948 -1.884812889353133e-05 0.0001698600894765229)
(-1.000068081706887 -6.392310315944519e-06 0.0001728355895168121)
(-1.000082809545606 -1.485573058414645e-05 0.0001374460171207461)
(-1.000082108521782 -5.031174191790806e-06 0.0001396877662913167)
(-1.000092387988144 -1.185450731219137e-05 0.0001093491966612712)
(-1.000091928324889 -4.009674567758235e-06 0.0001110229868516739)
(-1.000099028861455 -9.62602195491848e-06 8.482721967471685e-05)
(-1.000098727221147 -3.252231112108571e-06 8.605651874644909e-05)
(-1.000103546933366 -8.00883280924439e-06 6.314797487381108e-05)
(-1.000103347604656 -2.703171591524114e-06 6.40227433699796e-05)
(-1.000106508972585 -6.886765241494967e-06 4.36169325200048e-05)
(-1.000106374034578 -2.322538205517576e-06 4.420054783690615e-05)
(-1.000108195931298 -2.082919419849187e-06 2.591701701570481e-05)
(-1.000078049749197 -4.237193035823349e-05 0.0002198942327619694)
(-1.000092133640168 -2.031790221470122e-05 0.0001847224730809856)
(-1.000103296237306 -1.578676095421046e-05 0.0001476334626221849)
(-1.000102768813666 -5.350298050752777e-06 0.0001501619266853196)
(-1.000110612897564 -1.243824963846296e-05 0.0001162594275317298)
(-1.000110304693957 -4.20952313553744e-06 0.0001181173912393969)
(-1.000115335062087 -9.986786605208816e-06 8.944627517041788e-05)
(-1.000115163734994 -3.375639652247545e-06 9.079313768416546e-05)
(-1.000118318867424 -8.227948549497126e-06 6.615930108390167e-05)
(-1.000118232109837 -2.77809620709581e-06 6.710788183568797e-05)
(-1.0001201395059 -7.018278073572555e-06 4.548115816898237e-05)
(-1.000120103699438 -2.367515668639187e-06 4.610916898208226e-05)
(-1.000121170012677 -6.261041893487669e-06 2.659327410162082e-05)
(-1.000121162898357 -2.110671273314202e-06 2.695121205933091e-05)
(-1.000121633238917 -5.896625427253755e-06 5.833335417034271e-06)
(-1.000121639011638 -1.987115831197498e-06 5.910842142057006e-06)
(-0.999948841195031 -3.340422534820318e-05 0.0001463908995401496)
(-0.9999470907359116 -2.485845788495597e-05 0.0001824031615210759)
(-0.9999404421874623 -5.75672546896879e-06 0.0001256044185378552)
(-0.9999410095414568 -4.637805403990738e-06 0.0001007953039162525)
(-0.9999422271401255 -3.637218128050701e-06 7.877396203185802e-05)
(-0.9999436342560878 -2.732203260217258e-06 5.899911655645241e-05)
(-0.9999449177942044 -1.900318178712928e-06 4.094064450958071e-05)
(-0.9999506293893402 -1.002320537679684e-05 0.0002216374080158595)
(-0.9999441605869858 -8.434212274229652e-06 0.0001856359895231551)
(-0.9999411848458064 -7.015917867182961e-06 0.0001537294894881043)
(-0.9999458737423493 -1.119868760800756e-06 2.408819010859616e-05)
(-1.000089562724219 -6.026790917605783e-05 0.0002949195743288)
(-1.000054682478217 -5.533578015701427e-05 0.0002690663649833235)
(-1.00008586141178 -3.784457828482641e-05 0.0003089715714235493)
(-1.000050261763219 -3.465186984190475e-05 0.000280991375300929)
(-1.000083945240153 -1.290865008936288e-05 0.0003163379281292253)
(-1.000047937352116 -1.180847884568286e-05 0.0002872318072322248)
(-1.000106447456647 -2.831943723422199e-05 0.0002469870284935342)
(-1.000075317148186 -2.642621094190312e-05 0.0002287671314169518)
(-1.00010536481607 -9.638731561960173e-06 0.0002522859886885808)
(-1.000073883314661 -8.986524122451667e-06 0.0002333879333213711)
(-1.000119002519391 -2.141932013567131e-05 0.0001964062044378263)
(-1.000118417728477 -7.276456450027771e-06 0.0002002407893590502)
(-1.00009125668179 -6.896870649287289e-06 0.0001881435823594276)
(-1.000126413026457 -1.640403561704766e-05 0.0001549881841694608)
(-1.000126124709789 -5.563233494389462e-06 0.0001577691712812277)
(-1.000130587418378 -1.276017624554416e-05 0.0001207844040686467)
(-1.000130473550035 -4.320856583981141e-06 0.0001227959276335577)
(-1.000132782730458 -1.012972992871132e-05 9.215174535016658e-05)
(-1.000132769937009 -3.425458450223665e-06 9.359114717952714e-05)
(-1.000133820960779 -8.263766645336588e-06 6.771790713465251e-05)
(-1.000133865568004 -2.791133590234606e-06 6.872130134154703e-05)
(-1.000134232258882 -6.99159471787618e-06 4.633085115254176e-05)
(-1.000134308482096 -2.359111811200148e-06 4.699008329378548e-05)
(-1.00013434847755 -6.200167153025185e-06 2.700537097254714e-05)
(-1.000134441049625 -2.090545667516899e-06 2.737919706060892e-05)
(-1.000147242507055 -5.599294450320261e-06 5.842067631495273e-06)
(-1.000134362391518 -5.820709699532362e-06 5.914548639480189e-06)
(-1.000134461851013 -1.961835849328989e-06 5.995290455961918e-06)
(-0.9999627218116555 -3.095656287208265e-06 7.20322410973352e-05)
(-0.9999623373284739 -2.340377067187485e-06 5.425931489816609e-05)
(-0.9999622853572374 -1.635582660761274e-06 3.781104871536384e-05)
(-0.9999623570559274 -9.669116519416034e-07 2.230890623973425e-05)
(-0.9999624303669582 -3.198994731507337e-07 7.373426879552867e-06)
(-0.9999780092888862 -1.401325950321318e-06 3.419703043513739e-05)
(-0.999977398422108 -8.309563141846675e-07 2.022891202391568e-05)
(-0.999977100796428 -2.75337760411965e-07 6.694572661943291e-06)
(-0.9999902652781553 -2.364541199592043e-07 5.948656507686238e-06)
(-0.9999854378129309 -8.041170650367225e-06 0.0001919927486258866)
(-0.9999758015615086 -6.873428869488497e-06 0.0001631682545709172)
(-0.9999696033486813 -5.796283210666903e-06 0.0001368351358937637)
(-0.9999658444424676 -4.812120630859319e-06 0.0001130048875598654)
(-0.9999637466889394 -3.915327843137052e-06 9.149950904759005e-05)
(-0.9999931397616391 -4.776680965298383e-06 0.000119635492521965)
(-0.9999873969438385 -4.009606249757136e-06 9.976839931756379e-05)
(-0.9999834454967216 -3.293080535098186e-06 8.144684426772292e-05)
(-0.9999807973412088 -2.623923837182822e-06 6.455018238336355e-05)
(-0.9999790776339119 -1.995987758663561e-06 4.888121440944495e-05)
(-1.000000222699336 -2.766805256357635e-06 7.108604451441124e-05)
(-0.9999964504997229 -2.220769889350434e-06 5.668087448127334e-05)
(-0.999993774521563 -1.699205229513295e-06 4.312812714056764e-05)
(-0.9999919609561367 -1.198189017918067e-06 3.027974141698618e-05)
(-0.9999908417443352 -7.125708101352138e-07 1.795391893894184e-05)
(-1.000006421664585 -1.448491312877233e-06 3.720114848424024e-05)
(-1.000004082575952 -1.025611819745082e-06 2.620109437568507e-05)
(-1.000002598474335 -6.116150309287008e-07 1.556811982960054e-05)
(-1.000001819767036 -2.032326087334475e-07 5.16355912968085e-06)
(-1.000012630620126 -5.274859171677276e-07 1.313392010399727e-05)
(-1.000011710638143 -1.755019029248726e-07 4.360141229696727e-06)
(-0.9999997464855773 -9.284124644455455e-06 0.000222988645438962)
(-1.000001288114458 -5.592795227963538e-06 0.0001410466457711541)
(-1.000005396971016 -3.339329141410461e-06 8.643867643539141e-05)
(-1.000009753755632 -1.882749935442704e-06 4.868454953145287e-05)
(-0.9999527352692054 -4.001712746128454e-05 0.0001761598614103395)
(-0.9999538889327149 -2.949854909467975e-05 0.0002174798793783609)
(-0.9999622603240963 -1.178032288880055e-05 0.0002617468760339439)
(-1.000133190523242 -6.400943976978228e-05 0.0003152879803077581)
(-1.000245815150561 -4.064675326440229e-05 0.0003442427794211025)
(-1.000184542599182 -4.138344804547783e-05 0.0003443976425212397)
(-1.000130754324167 -4.02693539075087e-05 0.0003314126537435023)
(-1.000246567982658 -1.352474675091369e-05 0.0003508260159956911)
(-1.000184739762863 -1.400961108421186e-05 0.0003531133753748374)
(-1.000129651653482 -1.372413150782231e-05 0.0003397918159686295)
(-1.000233694786505 -2.907052802685988e-05 0.0002597691492165489)
(-1.000186699015923 -2.990976471965022e-05 0.0002650924679983288)
(-1.000143799127751 -2.957668148480975e-05 0.0002599654844435676)
(-1.000234654007981 -9.858668115032367e-06 0.0002657784102166651)
(-1.000186907570262 -1.016867203773588e-05 0.000271263543991804)
(-1.000143268052331 -1.006867987071024e-05 0.0002658396206054231)
(-1.000220780748707 -2.099781540711486e-05 0.0001971855228830509)
(-1.000184334037952 -2.191934069874549e-05 0.0002043286506896831)
(-1.000149987208622 -2.200983476910221e-05 0.0002035176474194423)
(-1.000221711658703 -7.139586854371036e-06 0.0002015350582604823)
(-1.000184674740838 -7.451935588256331e-06 0.0002086848082389368)
(-1.000149810961313 -7.481265698562775e-06 0.0002076865167910851)
(-1.000208637068092 -1.541754360042611e-05 0.0001497860581647358)
(-1.000179972583265 -1.631670029994921e-05 0.0001571488022270775)
(-1.000152214913147 -1.661542745304918e-05 0.0001585392468407775)
(-1.000209465893938 -5.237135182616845e-06 0.0001528193545635751)
(-1.000180373053874 -5.539711219663454e-06 0.0001602144213335995)
(-1.000152237889236 -5.638295203716752e-06 0.0001615110276693699)
(-1.000197991193616 -1.154896231844086e-05 0.0001131703254026011)
(-1.000175035778919 -1.237399321947386e-05 0.0001199293504547104)
(-1.000152282370661 -1.276019293373365e-05 0.0001222557350914568)
(-1.00019870611625 -3.916556696395142e-06 0.0001152742248973596)
(-1.000175441828015 -4.194333499321986e-06 0.0001220838122254445)
(-1.000152408479684 -4.323124760738469e-06 0.000124373070657276)
(-1.000189128426849 -8.865608062723346e-06 8.423578992935497e-05)
(-1.000170321415464 -9.603863419399387e-06 8.998035559039925e-05)
(-1.000151306614436 -1.001531266125583e-05 9.249026508617963e-05)
(-1.000189741141563 -3.001586304635416e-06 8.5687387245497e-05)
(-1.000170707613323 -3.250307979003288e-06 9.148433951694686e-05)
(-1.000151481429645 -3.388199963329475e-06 9.398631322056623e-05)
(-1.000182117388458 -7.022699604064587e-06 6.073107048854008e-05)
(-1.000166267288826 -7.681600418316326e-06 6.527175331188895e-05)
(-1.000149975766155 -8.089841781082539e-06 6.752385715213318e-05)
(-1.000182647558026 -2.374094048872695e-06 6.171380846758014e-05)
(-1.000166626119104 -2.596132973555178e-06 6.629951402254073e-05)
(-1.00015017047887 -2.733276490610639e-06 6.855623634851674e-05)
(-1.000176932426861 -5.797122645854577e-06 4.09758972011972e-05)
(-1.000163105634758 -6.393119888524113e-06 4.42368176790244e-05)
(-1.000148708136016 -6.788388708592223e-06 4.597775154349583e-05)
(-1.000177401519697 -1.957314065697806e-06 4.160763250990555e-05)
(-1.000163439100189 -2.158153301196797e-06 4.49020860342793e-05)
(-1.000148908835057 -2.29109231962245e-06 4.66509154732438e-05)
(-1.000173518698177 -5.04800420472965e-06 2.36674257127191e-05)
(-1.0001609539637 -5.601154792627775e-06 2.562565819192456e-05)
(-1.000147751334992 -5.983697877016956e-06 2.671577827302544e-05)
(-1.000173947809789 -1.702794400866555e-06 2.402051701241179e-05)
(-1.000161268785553 -1.88917760068057e-06 2.599919659094151e-05)
(-1.000147952459803 -2.017906066516344e-06 2.709559038453436e-05)
(-1.00017182609368 -4.692592511149762e-06 5.160191669548243e-06)
(-1.000159867458047 -5.224166626815168e-06 5.595215244075415e-06)
(-1.000172235490085 -1.582106554483269e-06 5.235907421683771e-06)
(-1.000160172538732 -1.761206541973377e-06 5.675498060791847e-06)
(-1.000147442900492 -1.887466388312147e-06 5.923896806226549e-06)
(-0.9999464235007297 -3.699216008728253e-07 7.950496914166905e-06)
(-0.9999726078879474 -5.540370191617144e-05 0.000246246691370434)
(-0.9999601385918651 -4.736233550581488e-05 0.0002094775541053138)
(-0.9999658196870447 -3.461148611545601e-05 0.0002564337669279811)
(-0.9999921556327681 -6.398750119096538e-05 0.0002858560320906906)
(-0.9999850160779773 -4.011143509580647e-05 0.0002987118904710181)
(-0.9999812516944183 -1.367769299051776e-05 0.0003054462378709301)
(-1.000059415402202 -8.085004852276309e-05 0.000365244947879017)
(-1.000020443244857 -7.266504701474508e-05 0.0003263705889074183)
(-1.000052886391634 -5.107153467789708e-05 0.0003847507690912344)
(-1.000013319323667 -4.572283457626721e-05 0.0003423592720641709)