/*--------------------------------*- C++ -*----------------------------------*\
  =========                 |
  \\      /  F ield         | OpenFOAM: The Open Source CFD Toolbox
   \\    /   O peration     | Website:  https://openfoam.org
    \\  /    A nd           | Version:  7
     \\/     M anipulation  |
\*---------------------------------------------------------------------------*/
FoamFile
{
    version     2.0;
    format      ascii;
    class       volScalarField;
    location    "0";
    object      mag(grad(Phi));
}
// * * * * * * * * * * * * * * * * * * * * * * * * * * * * * * * * * * * * * //

dimensions      [0 1 -1 0 0 0 0];

internalField   nonuniform List<scalar> 
12691
(
0.9999471029288204
0.9999477137720707
0.9999486412487334
0.9999495700468114
0.9999502923899366
0.9999507167146092
0.9999427679789047
0.9999430807598384
0.9999440880487568
0.9999453294485681
0.9999464907066864
0.9999473662565185
0.99994787289965
1.000006941664265
0.9999923217393288
0.9999822265297683
0.9999755149584789
0.9999712485101606
0.9999686858163596
0.9999672596748377
0.9999665487017541
0.999966250176303
0.9999661571989237
0.9999661413318396
1.00000223117223
0.9999878043711345
0.9999780018950836
0.9999716212675943
0.99996768395937
0.9999654239326918
0.9999642596967446
0.9999637622232083
0.9999636251379187
0.9999636400828092
0.9999636827020418
1.000032875740064
1.000017550186579
1.000006083715876
0.9999976865670707
0.9999916642047518
0.9999874364073991
0.9999845373281209
0.999982606090023
0.9999813739970682
0.99998065194264
0.9999802935120983
1.000029610083624
1.000014289375963
1.000002927659606
0.9999946895726621
0.9999888477404221
0.9999847993787447
0.9999820637780517
0.9999802706660819
0.9999791456620568
0.9999784963956521
0.9999781778037022
1.000027910899896
1.00001259966091
1.000052285195036
1.00003711344929
1.000025142113781
1.000015855988036
1.000008767931674
1.000003447110521
0.9999995309818894
0.9999967274402118
0.9999948118033311
0.9999936217924733
0.9999930061262672
1.000050018754276
1.000034756165362
1.000022781297157
1.000013547119762
1.000006541614992
1.000001315421595
0.99999749273169
0.9999947722715066
0.9999929232491064
0.9999917795025778
0.9999911894784579
1.000048843156042
1.00003353805884
1.000021565261315
1.000012361105087
1.000040178626964
1.000030534465109
1.000022869510335
1.000016880208522
1.000012298135123
1.000008898250944
1.000006501862918
1.00000497668241
1.000004174805598
1.00006510360585
1.000050411793768
1.000038404011889
1.000028747541308
1.000021102496324
1.000015151047387
1.000010613867273
1.00000725789182
1.000004898744691
1.000003400316172
1.000002613550448
1.000064287229249
1.000049529293467
1.000037491966005
1.000027831403051
1.000020198444924
1.000014267924206
1.000034287836385
1.000027928886746
1.000022938403213
1.00001915107061
1.000016431099675
1.000014675371853
1.000013743816335
1.00007615096627
1.000062252818961
1.000050531737398
1.000040808165075
1.000032873237456
1.000026515183091
1.000021536810842
1.000017766207997
1.00001506269228
1.000013319721285
1.000012395661331
1.000075580172715
1.000061607597231
1.000049841087188
1.000040093862436
1.000032150603023
1.000025794104777
1.000020822812113
1.000017061446055
1.000014366836759
1.000031569378082
1.000027545111879
1.000024617878794
1.000022710465525
1.000021692320273
1.000084137988483
1.000071071283883
1.000059776966531
1.000050181497772
1.000042171918887
1.000035617977071
1.000030388452101
1.000026362550241
1.000023437446318
1.000021533014518
1.00002051700269
1.000083734013601
1.000070592251149
1.00005924557091
1.000049615861307
1.000041585779584
1.00003502115949
1.000029787470432
1.000025761246116
1.000022837606432
1.000020934943994
1.000019920153597
1.000031097573881
1.000029095278864
1.000028021996702
1.000089788285687
1.000077476029852
1.000066628392322
1.000057242903774
1.000049274160413
1.000042651755207
1.000037294670557
1.000033122258214
1.000030062245474
1.000028056314334
1.000026981507649
1.000089496039596
1.000077111371784
1.000066209176443
1.000056784152368
1.000048787959479
1.000042147406022
1.000036778997746
1.000032600000597
1.000029536480423
1.000027528886574
1.000026453405625
1.000032746569223
1.000093621690474
1.000081917971136
1.000071458924149
1.000062287682944
1.000054404071583
1.000047779131659
1.000042367620568
1.000038118202939
1.000034981377798
1.000032915354327
1.000031805046226
1.000093401874865
1.000081629178162
1.000071115561233
1.000061902422503
1.000053987607772
1.00004734015612
1.000041912952798
1.000037653021476
1.000034509511426
1.000032439605329
1.000031327388254
1.000095994225582
1.00008471341992
1.000074536280741
1.000065532818631
1.000057730420031
1.00005112604165
1.000045697282339
1.000041411852901
1.000038235264849
1.000036136750366
1.000035006847044
1.000095817721862
1.000084470797001
1.000074239753261
1.000065193503502
1.000057358033299
1.000050728784205
1.000045281871453
1.000040983659425
1.000037798522255
1.000035694809656
1.000034562261332
1.000097127420799
1.000086062653232
1.000076032810416
1.00006712031538
1.000059365562858
1.000052777939231
1.0000473461412
1.00004304723231
1.000039854160565
1.000037741656193
1.000036603171303
1.000096971163306
1.000085841853988
1.000075758621894
1.000066803084025
1.000059014504649
1.000052400987937
1.000046949936126
1.000042637212197
1.000039434733686
1.000037316421847
1.000036174949708
1.000108293603102
1.000109130771029
1.000109050748443
0.9999472668324216
0.9999438058566498
1.000027471729414
1.00002275703389
1.000020283354937
1.000052964424582
1.00004985433715
1.000048228748499
1.000069164482789
1.00006809666237
1.000082819100865
1.000082118289972
1.000092394036473
1.000091934495412
1.000099032505253
1.000098730928931
1.00010354895906
1.000103349657553
1.000106509947413
1.000106375014015
1.000108196269277
1.000078074821667
1.000092150906181
1.000103307258598
1.000102780101121
1.000110619732291
1.000110311677906
1.000115339111806
1.000115167861913
1.000118321089537
1.000118234365163
1.000120140564669
1.00012010476514
1.000121170385833
1.000121163263724
1.000121633273312
1.000121639031079
0.9999488524686766
0.9999471076812362
0.9999404500927379
0.9999410146323584
0.9999422302495884
0.9999436360003665
0.9999449186341244
0.9999506540023577
0.9999441778538781
0.9999411966874924
0.9999458740331125
1.000089608025049
1.000054720205533
1.000085909855442
1.000050301839657
1.000083995354104
1.00004797867091
1.000106478355648
1.000075343662561
1.000105396683275
1.000073910587988
1.00011902203416
1.00011843780076
1.00009127440296
1.000126425170136
1.000126137169248
1.000130594793262
1.000130481097805
1.000132787027165
1.000132774321945
1.00013382328747
1.000133867932891
1.00013423335645
1.000134309588764
1.000134348861365
1.00013444142657
1.000147242539791
1.000134362425945
1.000134461870906
0.9999627244108658
0.9999623388033048
0.9999622860734396
0.9999623573052479
0.9999624303941941
0.9999780098745994
0.9999773986270623
0.999977100818875
0.9999902652958766
0.9999854562761377
0.9999758148973928
0.999969612727692
0.9999658508393167
0.9999637508828364
0.9999931469294221
0.9999874019288065
0.999983448818993
0.9999807994280544
0.9999790788306154
1.000000225229775
0.9999964521085553
0.9999937754530301
0.9999919614152897
0.999990841905762
1.000006422357593
1.000004082919726
1.000002598595705
1.000001819780388
1.000012630706514
1.000011710647664
0.9999997713906488
1.000001298077163
1.000005400712394
1.000009754942485
0.9999527515868101
0.9999539130176563
0.9999622946504927
1.000133242268208
1.00024587521342
1.000184602749243
1.000130810044863
1.00024662959837
1.00018480219399
1.000129709469399
1.000233728941076
1.000186734593585
1.000143833351245
1.000234689367361
1.000186944407032
1.000143303433302
1.000220800405886
1.000184355149388
1.000150008157413
1.000221731987873
1.000184696539253
1.000149832552907
1.000208648402509
1.000179985062009
1.000152227616596
1.000209477582081
1.000180385901231
1.000152250946049
1.000197997662785
1.000175043045729
1.000152289924155
1.000198712766672
1.000175449287731
1.000152416222179
1.000189132013305
1.000170325509116
1.000151310941159
1.000189744816534
1.000170711802582
1.000151485851428
1.000182119256908
1.000166269448171
1.000149978078266
1.000182649464793
1.00016662831992
1.000150172832231
1.000176933283025
1.00016310663348
1.000148709215873
1.000177402387056
1.000163440110452
1.000148909925673
1.000173518990941
1.000160954307668
1.000147751709706
1.000173948099681
1.000161269125262
1.00014795282887
1.000171826118
1.000159867487341
1.000172235505042
1.000160172556386
1.000147442919817
0.999946423532405
0.999972639742321
0.9999601616548024
0.9999658531663044
0.9999921985371394
0.9999850614975172
0.9999812984375354
1.000059485368344
1.000020499142697
1.000052961708376
1.000013378973095
1.000049610030505
1.000009617039585
1.000106257730145
1.000175293339257
1.000104297179672
1.000199369149626
1.000191997553503
1.000438163594458
1.000377154706267
1.000311440094571
1.000443249240021
1.000381044189862
1.000313167121643
1.000370806609657
1.000329513478402
1.000282412064464
1.000374891872716
1.000332574221098
1.000284300281215
1.000321390844207
1.000291965747443
1.000257477506873
1.000324355014904
1.000294285135483
1.000259078282242
1.000284327858382
1.000262657650322
1.000236788107717
1.00028649144995
1.000264412720697
1.000238079546627
1.000256410692353
1.000239975411273
1.000220062867785
1.000258026974482
1.000241322790657
1.000221099564581
1.000235525068022
1.000222666624992
1.000206889339957
1.000236767370135
1.000223724683294
1.000207731412534
1.000220218512707
1.000209793798503
1.000196863312893
1.000221206787322
1.000210650071104
1.000197562974043
1.000209492000984
1.00020067629594
1.000189644248945
1.000210312633407
1.000201396891701
1.000190244995675
1.000202678585625
1.000194842898505
1.000184974108829
1.00020339726951
1.00019547993575
1.000185512627062
1.000182681580762
1.000200039606491
1.000192594771197
1.000183190081437
0.9998733004049228
0.9998792580398287
0.9998824530729675
0.9998581539334721
0.9998679391150787
0.9998743451341569
0.9998777743917543
0.9997984651817421
0.999809847950923
0.9998242988000278
0.9998394131955269
0.999853783129012
0.9998666257598496
0.9998775343514917
0.9998863199178426
0.9998929121886561
0.9998972985381795
0.9998996695186435
0.999779020046341
0.9997940428636237
0.9998114581684677
0.9998289337820772
0.9998451554235216
0.9998594291552576
0.9998714240429909
0.9998810117442269
0.9998881680048576
0.9998929129775077
0.999895472478325
0.9998703996985725
0.9998698795797725
0.9998741078400664
0.9998807572391305
0.9998882941057397
0.9998957372329411
0.9999024759251325
0.9999081411742483
0.9999125176553149
0.9999154853213621
0.9999171073818255
0.9998565509989372
0.9998581434544758
0.9998642305649698
0.9998724492231198
0.999881273074501
0.9998897463356525
0.9998972887796503
0.9999035603169261
0.9999083699393283
0.9999116160993747
0.9999133855567277
0.999927854790815
0.9999197442528168
0.9999168946057859
0.9999173171625307
0.9999195882944131
0.9999227163266915
0.9999260262053707
0.9999290684344884
0.9999315512651237
0.9999332924996596
0.9999342625593786
0.9999181184796475
0.9999111428008441
0.9999093946165268
0.9999108128682714
0.9999139431206687
0.9999177860984773
0.9999216708683143
0.999925156893627
0.9999279622737745
0.999929913378324
0.9999309953250378
0.9997939778875162
0.9997702727937271
0.9998791126701509
0.9998630213368604
0.9999439754488659
0.9999332095544244
0.9997686984541836
0.9997857058576187
0.9998047309793663
0.9998234764459087
0.9998492257970089
0.9998519771384091
0.9998590725404005
0.9998681334400866
0.9998776419597738
0.9998866594898729
0.9999054899145211
0.9999074421763309
0.9999110291333145
0.9999152496441507
0.9999194364683746
0.9999231547968005
0.9997576572604941
0.9998544454989693
0.9999129903968421
0.999906640404171
0.9999274991159882
1.000012607872973
0.9999709836716912
1.000001089965193
0.9999595439645262
0.9999949922077908
0.9999534303915552
0.999832079598367
0.999801132335006
0.9997999875533816
0.9997736022264426
0.9997835132395817
0.9997588279326012
0.9999399984953744
0.9999002738261719
0.9999205274089283
0.9998821796557185
0.9999091121063377
0.9998723685594338
1.000271578660766
1.000102919570505
1.000090792423349
0.9998406847489971
0.9998557154225329
0.9998682816800223
0.9998946243843388
0.9999012133464543
0.9999062491013248
0.999926128554922
0.9999281890132892
0.9999293291940008
1.000253593536843
1.000175769762919
1.000111400468725
1.000257662741926
1.000114610630009
1.000074221256987
1.000254268604407
1.000173172374086
1.000219126827082
1.000213807859936
1.000131372036756
1.000062761170637
0.9992695221317267
1.000233936375489
1.000058281322979
1.000171816085754
0.9998921254527147
0.9998240729357594
0.9999821943008034
0.9999381914637354
0.9998015238324626
1.000266933727053
1.000089645556926
0.9999867315994834
1.000258527373221
1.000068530165805
0.9999716874344171
0.9998411365890245
0.999855036263777
0.9998651936977581
0.9998718334946465
0.9998753847127004
0.9998782895460461
0.9998857403474848
0.9998906722293205
0.9998933298639142
0.9999096403762757
0.9999114865483234
1.000332407109007
1.000513380951125
1.000250553131944
1.000719050377573
1.000352176367707
1.000630883575462
1.000438131947269
1.000340571458721
1.000556751751046
1.000443303718761
1.000343274191953
1.000660100396737
1.000516639579825
1.000245655146701
1.000663711449353
1.000573614809691
1.000336251932635
1.001262069899343
1.000858500055985
1.000240758283174
1.001323702745079
1.000882178832655
1.000220753662175
1.000815379385954
1.000596293283107
1.000359259094874
1.00081656953578
1.000548060788232
1.000345309457356
1.000691716688984
1.001355586122691
1.000854634713606
1.000465917853355
1.000703292488031
1.001426792609134
1.000866549914385
0.9997075787266643
0.9997491502811511
0.9997809842313712
0.9998047237308498
0.9998215725055564
0.9998323681247215
0.9998380724468915
0.9996324309703233
0.9996912469436517
0.9997365186323165
0.9997709299454073
0.9997964503028043
0.9998144902955348
0.9998260174277804
0.9998320981426417
0.9994979757160849
0.9995794211208814
0.9996452092614593
0.9996986972883836
0.9997417262926633
0.9997758611425619
0.9998024250540545
0.9998224831566077
0.9998368512682914
0.99984611616084
0.9998510305974199
0.9994515966272944
0.9995454050252318
0.9996202110213841
0.999679924986975
0.9997273160241408
0.999764540417188
0.9997932947121212
0.9998148866565928
0.9998302910682518
0.9998401968017966
0.9998454423957216
0.9996105150989937
0.9996617602609151
0.9997073922118297
0.9997463970604245
0.999778911469594
0.9998054175369576
0.9998264828673753
0.999842645366038
0.9998543597515832
0.9998619744857017
0.9998660333544015
0.9995735229377113
0.9996346187517016
0.9996868644272556
0.9997305825545724
0.9997665100879893
0.9997954971311765
0.9998183573006988
0.999835796521406
0.999848383726907
0.999856542680479
0.9998608842080333
0.9997114184696007
0.9997398869934062
0.9997681379225604
0.9997941037158461
0.9998168791394553
0.9998361497563113
0.9998518952859599
0.9998642276580704
0.9996844584273514
0.9997189557391157
0.9997517269886425
0.9997810993209584
0.9998064382914656
0.9998276276051047
0.9998447932730908
0.9993561295285904
0.9993237823700429
0.9996788988707752
0.999532414758759
0.9996869543876326
0.9996518611080608
0.9996701257171906
0.9996334035689862
0.9996448104305269
0.9996265315624634
0.9996308907984482
0.9995939257856495
0.9996103448687654
0.9989317860067333
0.9992063788144228
0.999497602637293
0.9994567639156892
0.9994203631319781
0.9994326810352698
0.9993965171960399
0.9989192217703899
0.9987994059533923
0.9989679137079317
0.9995794940282081
0.9995689683581797
0.9995077712574134
0.9994264941765197
0.9995541844782349
0.9996202222333248
0.9996760360471706
0.9997078705856703
0.9997430994472442
0.9997743092119993
0.9998010173685484
0.9992912247388147
0.9995043293590713
0.9987995193313522
0.9991519449172823
0.9997517155399291
0.9997083050292874
0.9999250382593486
0.9998744214577546
0.9996743150636508
0.9987088610877373
0.998636032930419
0.9988788427436458
0.99838255538815
0.9983912610398945
0.9987440604523352
0.9998239433432647
0.999548648452727
0.9994174325878212
0.999809140982834
0.9995599069498293
0.9993050014390102
1.00013616955162
0.9996210210756642
0.9996827185178475
0.9995272691432889
0.9996069748532244
0.9996700675564161
0.999719803397328
0.9997586720636776
0.9997885831497528
0.9997223022634288
0.999760058061175
0.9997903622437858
0.9998141687951843
0.9998322778817544
0.9998453214395372
0.999823223158281
1.000663614205426
0.9990013924878668
1.000983428787165
0.9996770137196996
1.002949744036284
1.000514789713344
0.9987817142199806
1.0030178402129
1.000243538182779
0.99843732431257
1.002376426046883
1.000974953405469
0.9999174394576151
1.002404824110309
1.000938479011466
0.9999032343330627
1.001355315092261
1.000892809791375
1.000208597402922
1.001424928780987
1.000916527724486
1.000182102602721
0.9997299625202412
0.9997657366971011
0.9997921932720334
0.9998108569706031
0.9998227660897273
0.9998290430399988
0.9998109807137627
0.9998269273498057
0.9998371675470118
0.9998425857176046
0.9998537642738468
0.9998582530388462
1.003762592225341
1.00276464745975
1.001463822453828
1.003852887800074
1.002804620669391
1.001545219830325
1.000028538057488
1.000000356236151
1.000155440274582
0.9996292171318895
1.000156352304872
1.000213366845072
1.000114914019884
1.000150966315797
1.000144338688423
0.9999655061555424
1.000150843627113
1.00015795552084
1.000108522839307
1.000106194302971
1.001240846029463
1.000948940775109
1.001011372750778
1.000815203232983
1.00084998035475
1.000566225580713
1.000746750760867
1.000545143839117
1.000248060453557
1.000479085173404
1.000282674277215
1.000484044406756
1.000776399616373
1.000947047041924
1.000593599601864
1.000774940151153
1.000960514786656
1.001312123780442
1.000987182936409
1.001061132473555
1.001026285045388
1.000824765529751
1.000845800698562
1.000566755088265
1.000877851876437
1.000567106521807
1.000754194004746
1.000547837687663
1.000771246125673
1.000553012968231
1.000224620693542
1.000477414323423
1.00047261307215
1.0003086779843
1.00027683030337
1.000483123849562
1.00048568960351
1.000993230416257
1.001341402450137
1.001002379260084
1.001069170011705
1.001081469832273
1.000850661150427
1.000858095484129
1.000566956331594
1.000888659484694
1.00056638823555
1.000775212370119
1.000554321270327
1.000781156778715
1.000553798632648
1.000214928588686
1.000471259303822
1.000468780415319
1.00026959478584
1.000279266212767
1.000487092798295
1.000481272503281
1.000991340730334
1.000787329471717
1.00096037235576
1.000552649127817
1.000784608812114
1.000666268907499
1.000802546009092
1.000520061377594
1.000721144880629
1.000538416536346
1.000532874437486
1.000641107184699
1.000736747607465
1.000541487155723
1.000826324942018
1.000998475169211
1.001009437622681
1.00067247860025
1.000680311919042
1.00080690304005
1.000813767685742
1.000552389047671
1.000572999222443
1.00055034564456
1.000740514941185
1.000543231998036
1.000746313879656
1.000542988393359
1.001331190494633
1.001070699972452
1.000814970980484
1.000998914428685
1.001413375023347
1.00112660445453
1.001087337072173
1.001048485794517
1.00082565563052
1.001013630935917
1.001447335804436
1.001135704684694
1.001149609561599
1.000871203221549
1.001056603017704
1.001068951633934
0.9988517341670261
0.9990892149877453
0.9990483582507733
0.998918310816734
0.9991462298679059
0.9989975014389622
0.9992383142924532
0.999428232757663
0.9988249256773342
0.9992455917603152
0.9988192975453263
0.9992133630069835
0.9991756561854682
0.999204582420579
0.9988675478111397
0.9991775569409964
0.9999094492763496
0.9997091831118665
0.9993849594118506
0.9996624111771489
0.9993466618483798
0.9992885698123419
0.9993166106799365
0.9994790404995468
0.9992835415516946
1.000146052917157
0.9999677051157667
0.999986389605771
0.999790608173707
0.9998241678801879
0.9998656698663798
0.9996703519361465
0.9997435022310444
0.99902232427518
0.9990816130570491
0.9987712780760741
0.9989774717388431
0.9991434038411694
0.9991141811861473
0.9988906012526401
0.9998384268356355
0.9998811681081614
0.9996963576551683
0.999644140755606
0.9997232105062864
0.9996695295350105
0.9995737792421833
1.000106877005151
1.000097640380378
0.9999124035082119
0.9999060997099805
0.9998875876611116
0.9997043810227469
0.9996849893621051
0.9996550052615965
0.9998658251662209
0.999658254363929
0.9996569361038429
0.9995616021018608
0.9996380377556792
0.9995460201202431
0.9985242040395573
0.9993712377407056
0.9992279452957598
0.9985518916281128
0.9991935714060968
0.9984747066864614
0.9990648529391767
0.9986170244896962
0.9991637572945216
0.9991341355755805
0.9984963515370056
0.9985611061428638
0.9990415327956124
0.9990328450019956
0.9988003973593557
0.9991712437382287
0.9991073612648785
0.9987490593389766
0.9991387753861498
0.9986496656588473
0.9990447306050126
0.9982985029583142
0.9991929914105064
0.9991382525241211
0.9983081121931082
0.9982786583047153
0.9990338611709509
0.9989856212272954
0.9984420589752239
0.9983296646235024
0.998421222649344
0.9990122106000364
0.999008760834033
0.9989666398302195
0.9989711388190773
0.9990937586592912
0.9990550428797667
0.9987121592450696
0.9985759614859495
0.9985331089406941
0.9990223985955322
0.998986868459574
0.9995330785690284
0.9994167243865971
0.9998849684614515
0.9996838555882153
0.999341203844654
0.9996206744352131
0.9992331407403117
0.9996375668243699
0.9993045770447384
0.9992527019430354
0.9995748279358662
0.999487312825733
0.999200998413193
0.9991645591345918
0.9993708689989496
0.9992774772294027
0.9992217058968825
0.9994436536981958
0.999250040794476
0.9994700381912167
0.9991675198041718
0.9997860490748447
0.9993884097333215
0.9993441221159558
0.9996055111709463
0.9995821554050189
0.9992071704165819
0.999166798506799
0.9994738050280541
0.9995371201078315
0.999454387679093
0.9991761941494565
0.9991437581901679
0.9991377016569989
0.9991112151277018
0.9993202857769031
0.9992039112832495
0.9991593625578468
0.9994577449113877
0.9994407427375281
0.9991482577590353
0.9991171073386949
0.9999564046332495
0.999933902887052
1.000112889001662
0.9999179718614112
0.9999667928875977
0.9997699140708352
0.9997170953664514
1.002735966739719
1.002356059233364
1.001602884836769
1.001262193893463
0.9999478131234738
1.000941469263
1.000158781153113
0.999525320375489
0.9994422868166614
0.9999591553297187
1.002201818380285
1.001777072822326
1.001264781702457
1.001182264556025
1.000278836612156
1.000993127905001
1.000488638065975
0.9999990187153354
1.000093509927592
1.00034588521708
1.0013313940407
1.000996528977955
1.001652412718848
1.001139071173885
1.000884186238183
1.000565897393022
1.000973299201621
1.000523454659847
1.000217497274561
1.000469493155394
1.000071636952825
1.000393652895794
1.002543923125169
1.002859071440899
1.002412162967909
1.001536172356755
1.001259121730072
1.001507829477655
1.001241680235599
0.9996395058268509
1.000923700051379
1.00011229144354
1.000366816634683
0.9995451637349059
1.000869977461816
0.9999896822215749
0.9985873210069843
0.999467949483772
0.9993227570008236
0.9992130630187898
0.9999075522944374
0.9990040491072368
0.9997733599723725
1.003044008750286
1.002574239253967
1.002620201469
1.001433499269069
1.001418318842915
1.001235477456285
1.001224377091911
0.9993315977850774
1.000166421217888
0.9992923725059605
1.000855058595098
0.999958628906393
1.000830376048996
0.9999091564073534
0.9983479825957202
0.999287150528441
0.9992312518085676
0.9988392792569131
0.9987397602472428
0.9997397369312014
0.9996864295770973
1.001906173694181
1.00225372829728
1.001815332994954
1.001268723199694
1.001194752740359
1.00127110426431
1.001221917949391
1.000244770902864
1.000998281132783
1.000476801020669
1.000946734039714
1.000154926736489
1.001007519244788
1.000445065854335
0.999630926564123
0.9995146406740565
0.9999757588907411
1.000054437814915
1.000330077131487
0.9999530166157535
1.000288946383107
1.002448149307782
1.001927296965294
1.001959650716262
1.001270191449462
1.001267699903451
1.001227724837052
1.00123624520152
1.000132180854211
1.000924566868755
1.0000959606716
1.001009053531233
1.000436945923162
1.00101095355488
1.000423967747348
0.9998810168178852
0.9994861944298649
0.999441592548189
0.9999276479434216
0.9998874669235809
1.000278648484653
1.000262340150025
1.001008775316331
1.001411835633579
1.001036924524237
1.001767531009872
1.001686544827571
1.00115215414012
1.001181372653526
1.000565222071205
1.000912225291769
1.000562408747857
1.000980241616602
1.000515744832921
1.000994499652096
1.000494713506052
1.000187327276384
1.000466315363223
1.000457616743551
1.000007407478364
1.000053303650175
1.000382376154249
1.000352890183036
1.001043287358242
1.001444953402891
1.001052900569839
1.001786354525098
1.00181518296828
1.001187791825781
1.001197351451649
1.000561490358155
1.000922955217598
1.000559829220057
1.000997362462426
1.000489268609544
1.001001417835631
1.000480523728315
1.000173987055546
1.000455331999458
1.000451564208864
0.9999962214247995
0.9999787292616261
1.000345481006812
1.000333728615112
1.003348781601645
1.002740713576373
1.002524603256174
1.001971935483535
1.001436008060532
1.001818309542427
1.003012273128739
1.003572618127375
1.002820329429363
1.002133225256455
1.002594990914891
1.002019413810055
1.001529858831389
1.001959094974443
1.001859821748781
1.003946349997563
1.0030575111209
1.003126952334354
1.00286613084322
1.002159913743366
1.002200956377783
1.001568757850419
1.001982328065126
1.002018026451077
0.9989175482011845
0.9983184686557858
0.9988214840543842
0.9987406765937421
0.9988271748077996
0.9987902112115747
0.99867246111054
0.9986074028898357
0.9986120445459965
0.9986602980287169
0.9988673132646556
0.9987339012617854
0.9986854472205011
0.9986537081512575
0.9988478524632465
0.9987635818541908
0.9984187210576857
0.9981950143405178
0.9982848277588148
0.9981933015097257
0.9984226644792586
0.9984292287009101
0.99826023086289
0.9983651777596488
0.9987654453524206
0.9986795471008791
0.9986003625337936
0.9984880808999819
0.9980228457306585
0.9979204644604671
0.9979952888740558
0.9979602168031416
0.9981377352855721
0.9982286151223363
0.998065831096136
0.9982046917571618
0.9986175491534309
0.9985820022752167
0.9984047111480465
0.9983562536621688
1.002855701599322
1.001528647344632
1.00046601123842
0.9996877637238387
0.9987418324830277
0.9991636407717648
1.002980814360851
1.002960807190571
1.001379235063528
1.001321978737013
1.000246093871978
0.9992720313751232
1.000028147717589
0.9991443396286572
0.9984735024782284
0.9982349505506827
0.998869756609547
0.9986004013794975
1.003073696896874
1.002946056624432
1.001185506113209
1.001154814876391
0.999846918320057
0.9988546355643386
0.9997348328298893
0.9988011737704861
0.9980502310272118
0.9979399541523541
0.9983872430993014
0.9982581136308166
1.003590701485449
1.004028316751152
1.003829210999144
1.002790216780963
1.003732616496751
1.000179340199262
1.000042351585832
1.000182398026785
1.000083379564882
0.9999145157655873
1.000082487435594
1.000052109613853
0.9999830281224956
1.000249585590298
1.000167001555345
1.00017624209104
1.000133189669735
1.000109354315231
1.000165923734275
1.000198324734282
1.000129089150047
1.000195092896686
1.000105028394408
0.9999701084100733
0.9999103827733199
0.9998330536337584
1.00003762151604
0.9999686447262329
1.000025508723574
0.9999600883001657
0.9998171169509794
0.9998434619666511
0.9998306267989561
0.9997861727573765
0.9997705810428538
0.9998610203796441
0.9998509688296963
1.000067887134726
1.000028621806491
0.9999709822481745
1.000011458408423
1.000066078026877
0.9999998159673964
1.000023144425785
0.9999666671777308
0.9999228297592384
0.999868791632315
0.9999765208488365
0.99995497416813
1.000000697017338
0.9999501891724992
0.9997990148230032
0.999818973119756
0.9998130353678067
0.9997600489632199
0.9997545598202461
0.9998408944408318
0.999836862493609
1.000263714699866
1.000204045112451
1.000226424378302
1.000160662164339
1.000170870812674
1.000173510512798
1.000154688800863
1.00026186315687
1.000222764101112
1.000334447881585
1.000176602989414
1.000180401497046
1.000149826799177
1.000150689158668
1.000630919444457
1.000695145227452
1.000570018532251
1.000598250165408
1.0004412154688
1.000561225795892
1.000484439093323
1.000512650406126
1.000714459896852
1.000536967537171
1.000334081819415
1.000433246537833
1.00041683307479
1.000727433747446
1.00064446341457
1.000713669170664
1.000585582485358
1.000641424435904
1.000652611120455
1.000591773689667
1.000445809129898
1.000568373688697
1.000490898523202
1.000539921334883
1.000498749508781
1.000523899137216
1.000456582292038
1.00066675225297
1.000735562366625
1.000740172795264
1.000660351913221
1.000664001651443
1.000595151012778
1.000596122206063
1.000500509883935
1.000576995941556
1.000501127216562
1.000531022399019
1.000459870492179
1.000533936840549
1.000460773238776
1.001105755244596
1.001163893540467
1.001281147598128
1.001176534556102
1.001091285068029
1.001193447941069
1.001180005174259
1.000739622891715
1.000758133333798
1.000865995131947
1.000823513742422
1.000734568618179
1.000830787195542
1.00076301889074
1.000330231511518
1.000234562007549
1.000314312498016
1.000266484152068
1.000260772075551
1.000334222233781
1.000309223851826
1.001144435555256
1.001215769341957
1.00133250146083
1.001231114645857
1.001137830752532
1.001238896005599
1.001223135236728
1.00075262462874
1.000773316862692
1.000885421856377
1.000846613933611
1.00075050175772
1.000849799152542
1.000775314746489
1.000319543820827
1.000217836036052
1.00029764048139
1.000250341780258
1.000248534259417
1.00032149873931
1.000295113708567
1.000815900030531
1.000868598093196
1.000808366738113
1.000770809357407
1.000765431666057
1.000821711293729
1.00086142973499
1.00034855788483
1.000443483054211
1.000349306991701
1.000401255488373
1.000491303147125
1.000428095890347
1.000481945523877
1.000829673368622
1.000817681993395
1.00087379320161
1.000774337219437
1.00077631132981
1.000826195288636
1.000877683283003
1.000636029244213
1.000477945489488
1.00057174647623
1.000676205878421
1.000507655949993
1.00063651742071