/*--------------------------------*- C++ -*----------------------------------*\
  =========                 |
  \\      /  F ield         | OpenFOAM: The Open Source CFD Toolbox
   \\    /   O peration     | Website:  https://openfoam.org
    \\  /    A nd           | Version:  7
     \\/     M anipulation  |
\*---------------------------------------------------------------------------*/
FoamFile
{
    version     2.0;
    format      ascii;
    class       volScalarField;
    location    "0";
    object      p;
}
// * * * * * * * * * * * * * * * * * * * * * * * * * * * * * * * * * * * * * //

dimensions      [0 2 -2 0 0 0 0];

internalField   nonuniform List<scalar> 
12691
(
4.193416304331044e-05
3.117099940704995e-05
2.200711224849388e-05
1.433386217280978e-05
7.933943658199908e-06
2.509860522762033e-06
5.579874855166001e-05
4.285881842752315e-05
3.164825385072867e-05
2.219121648769793e-05
1.434878725143147e-05
7.881938918992057e-06
2.478802401440739e-06
6.163057280344125e-05
6.225089249692015e-05
5.788427486934754e-05
5.086745560819551e-05
4.276408768464375e-05
3.454939117311529e-05
2.677497198630045e-05
1.969798937912081e-05
1.3373177709071e-05
7.711989100468938e-06
2.514327497986445e-06
6.718947971881434e-05
6.662534482214304e-05
6.118857002812133e-05
5.326802163991213e-05
4.443659616526607e-05
3.565706946122092e-05
2.74600289814192e-05
2.008030194365216e-05
1.355248340466868e-05
7.771336723605078e-06
2.52346439062079e-06
2.504542240251937e-05
3.283114194709622e-05
3.510352129671743e-05
3.384928316743603e-05
3.052068632384002e-05
2.611788503108258e-05
2.128408388188702e-05
1.639183791617329e-05
1.161153127670279e-05
6.959953916463733e-06
2.330027491353382e-06
2.939679578172495e-05
3.643923836522007e-05
3.797500445641122e-05
3.605186307845815e-05
3.214948688848482e-05
2.727466785079282e-05
2.206587294519826e-05
1.68856597200494e-05
1.189272583075045e-05
7.092261452368751e-06
2.366221115583858e-06
3.157750086742879e-05
3.823663383001429e-05
-5.704564765214246e-06
7.049488621893361e-06
1.432027840461212e-05
1.768679723639052e-05
1.839463619428491e-05
1.737114690031099e-05
1.526763422932413e-05
1.250845601284544e-05
9.335937714994315e-06
5.845976629042635e-06
2.012707736424356e-06
-2.380822628564476e-06
9.940242563254977e-06
1.672895395011406e-05
1.962081765892754e-05
1.989404742136202e-05
1.849167535931474e-05
1.606972446978255e-05
1.305075551482837e-05
9.671739457101649e-06
6.021388314885906e-06
2.065591755400461e-06
-7.227423827236996e-07
1.137614338221455e-05
1.791904644458123e-05
2.057042787864093e-05
-3.884229641185312e-06
3.051996829843094e-06
7.042876869464088e-06
8.892953295783628e-06
9.209576128706416e-06
8.423612508277293e-06
6.814236411079146e-06
4.531950939324702e-06
1.617006043875681e-06
-2.831322942013522e-05
-1.250489829272815e-05
-1.911736559974519e-06
4.701594599018547e-06
8.374386558064292e-06
9.929717281078994e-06
9.98431097447359e-06
8.97213699610583e-06
7.171353674037913e-06
4.728746212593001e-06
1.678908633593584e-06
-2.70779587030115e-05
-1.138320587404998e-05
-9.4017963387976e-07
5.510500931885261e-06
9.023933222585178e-06
1.043250391646425e-05
-3.088554405896729e-06
1.117349276611037e-06
3.493908188034249e-06
4.450548827755028e-06
4.278235153399541e-06
3.161800625346063e-06
1.192212393045863e-06
-4.892175406224131e-05
-3.092603451018261e-05
-1.767442796071948e-05
-8.278552491615527e-06
-1.93167884363691e-06
2.050395341131882e-06
4.215919496726998e-06
4.979976593607519e-06
4.635245194120217e-06
3.365366425429321e-06
1.257853612019704e-06
-4.801549776354878e-05
-3.006279475845063e-05
-1.689427676669324e-05
-7.602866060063251e-06
-1.368209181916758e-06
2.503031925756892e-06
4.564632331577959e-06
5.23447184135146e-06
4.806032761193223e-06
-1.592209080790634e-06
8.354853337268806e-07
1.916780058069135e-06
1.855685877280021e-06
7.80017574176609e-07
-6.485488868813409e-05
-4.556587493083589e-05
-3.052018529269675e-05
-1.91085701498935e-05
-1.072703671922412e-05
-4.825156683232894e-06
-9.319893926977091e-07
1.333497312564877e-06
2.261720427951402e-06
2.057224072832501e-06
8.461016032750819e-07
-6.419630074174518e-05
-4.490600127412206e-05
-2.989793297272813e-05
-1.85488745475704e-05
-1.024375528392657e-05
-4.423989032427612e-06
-6.130883003928588e-07
1.573350501623347e-06
2.427371062733264e-06
2.153755469886335e-06
8.776991880330558e-07
-1.242809149458243e-07
7.085731136563976e-07
4.13767286525417e-07
-7.675200397423805e-05
-5.675119596036473e-05
-4.053919394848159e-05
-2.771781698782195e-05
-1.784582966975752e-05
-1.048762644568903e-05
-5.244797041780493e-06
-1.774203890498889e-06
2.037767780200978e-07
9.037865580731009e-07
4.785533134461253e-07
-7.627327965145176e-05
-5.624434078859445e-05
-4.004013632811299e-05
-2.725223845637563e-05
-1.743064290704651e-05
-1.013276950287779e-05
-4.95504422713212e-06
-1.550828962401536e-06
3.615499119633024e-07
9.975466011327956e-07
5.096439322047822e-07
1.186905852281752e-07
-8.516774424784154e-05
-6.480913347163793e-05
-4.787452448287915e-05
-3.411474323495955e-05
-2.320873971827415e-05
-1.480976690522596e-05
-8.578796192522946e-06
-4.206613770954512e-06
-1.426648170499297e-06
-2.057662331920589e-08
1.815915207502531e-07
-8.481306116162049e-05
-6.441075083558866e-05
-4.746521511063263e-05
-3.37197095098129e-05
-2.284622245169666e-05
-1.449208959701514e-05
-8.313598564885592e-06
-3.998110180563805e-06
-1.276816538592907e-06
6.976465015736628e-08
2.118280022273758e-07
-9.053410122210871e-05
-7.001615671130862e-05
-5.267016849870041e-05
-3.834124151025243e-05
-2.678683905757954e-05
-1.772013847610089e-05
-1.084362118035189e-05
-5.873035501312558e-06
-2.552748738833977e-06
-6.638287781636613e-07
-2.614374404213384e-08
-9.025692761288449e-05
-6.968691275611971e-05
-5.231917428031813e-05
-3.79929505709339e-05
-2.645995800979026e-05
-1.742822095703578e-05
-1.059593416481603e-05
-5.675544524129678e-06
-2.40911769122354e-06
-5.763711303757205e-07
3.308333962085712e-09
-9.31437046852799e-05
-7.256890227296172e-05
-5.503786734215346e-05
-4.044121911869879e-05
-2.857506328014511e-05
-1.918262564773342e-05
-1.198762919273801e-05
-6.718950141436283e-06
-3.127068788509402e-06
-9.932975257236434e-07
-1.328572721052756e-07
-9.290373455116238e-05
-7.227324546552499e-05
-5.471552971933736e-05
-4.011616369436226e-05
-2.826611168414808e-05
-1.890384248296305e-05
-1.174901121013378e-05
-6.527275057137054e-06
-2.986797101009318e-06
-9.074559536901767e-07
-1.03859631264138e-07
-0.0001142374797538402
-0.0001167274605992872
-0.0001165764195127306
5.423337234915425e-05
7.016954833203312e-05
5.277837169870963e-05
5.951257507938918e-05
6.291505317683039e-05
9.215769897070693e-06
1.420867447099637e-05
1.672201679659486e-05
-2.217563974439159e-05
-2.036359732338047e-05
-5.068557134651467e-05
-4.940631229067983e-05
-7.254298589600508e-05
-7.165722543303186e-05
-8.891930676850224e-05
-8.831703423032779e-05
-0.0001008248613023844
-0.0001004210815247711
-0.0001090661097092367
-0.0001087952704285489
-0.0001140479350882685
-1.733483483766428e-05
-5.120795581331823e-05
-8.057639618894525e-05
-7.936334508787762e-05
-0.0001021709318801712
-0.0001013946912560816
-0.0001177509593331414
-0.0001172753379488447
-0.0001287073135114937
-0.0001284339550626569
-0.000136083363769625
-0.0001359410481537103
-0.0001406146400764838
-0.0001405504567766938
-0.0001427674381567087
-0.0001427396742190287
6.772424576196472e-05
8.522219857162036e-05
5.653390195228139e-05
4.327574052426866e-05
3.184671638390729e-05
2.225019312079267e-05
1.433144003152191e-05
0.0001020316141063837
8.69936410762132e-05
7.134764492256061e-05
7.840329430087296e-06
-5.623821200424748e-06
3.172548715158648e-05
2.420336177569154e-06
3.938810952942007e-05
6.423368459154101e-06
4.326092329547753e-05
-5.181793020905302e-05
-1.197387210888535e-05
-4.917720681696002e-05
-9.270975878973006e-06
-9.09206229795487e-05
-8.925609102937904e-05
-4.937234884086422e-05
-0.0001186100876386174
-0.0001176111096522299
-0.0001379098631113397
-0.0001373531344780688
-0.0001511385515441023
-0.0001508705927742614
-0.0001600052370651163
-0.000159922326723826
-0.0001657248859315618
-0.0001657568289564566
-0.0001691199060404433
-0.0001692180152976286
-0.0002001724747496711
-0.0001706969116988877
-0.0001708251753348795
2.777329687019194e-05
2.024687777713765e-05
1.362344002251136e-05
7.789152105632109e-06
2.523923921259752e-06
1.20190345062268e-05
7.149312210272283e-06
2.381159591019594e-06
2.089560657911669e-06
6.880610509365255e-05
6.281976493542443e-05
5.443898080066894e-05
4.524021992220266e-05
3.617868667507072e-05
3.713191088712541e-05
3.294011051751115e-05
2.782925969568626e-05
2.243485017639261e-05
1.711394106100745e-05
1.903330551893811e-05
1.645363098591384e-05
1.330731535941592e-05
9.828435025676233e-06
6.101957437446532e-06
9.234472653376558e-06
7.34080466205133e-06
4.821372486329145e-06
1.707867556796907e-06
3.462301982046281e-06
1.28901060625854e-06
6.998269431203961e-05
3.93951283891922e-05
2.062494326515787e-05
1.035754960278623e-05
8.161164183475131e-05
9.949857086933182e-05
0.0001139359885662516
-6.412062856252689e-05
-0.0002553340625219337
-0.0001415582848542231
-5.656064578572041e-05
-0.0002527640212567588
-0.0001383335346255741
-5.298105973896811e-05
-0.0002764683162902618
-0.000183407680522358
-0.0001084226639948703
-0.0002763411765313782
-0.0001819550538707275
-0.0001062020104589302
-0.000283394365652507
-0.0002076520552217712
-0.00014299912561295
-0.0002839986368047126
-0.0002071544850907222
-0.0001417664479015793
-0.0002829395260392773
-0.0002209600589848016
-0.0001655796981897831
-0.0002837844828010549
-0.000220973694079879
-0.0001649815254846084
-0.0002789983287093907
-0.0002276445609825288
-0.0001800206029088527
-0.0002799013483824885
-0.0002279279069723856
-0.0001798143616871571
-0.0002738232082216328
-0.0002304789018582658
-0.0001890405294065941
-0.0002747106214924786
-0.0002308994483071602
-0.0001890714808268432
-0.0002687199242536974
-0.0002312373670162566
-0.0001945134897549068
-0.0002695663649696898
-0.0002317233563902013
-0.000194685206803443
-0.0002644395095882036
-0.0002310429922108676
-0.0001977019255282493
-0.000265243142299436
-0.0002315571464797908
-0.0001979547318855136
-0.0002614044637564805
-0.0002305880540168587
-0.0001994251169109047
-0.0002621751120795338
-0.0002311125359393174
-0.0001997216630946607
-0.0002598387610001889
-0.0002302700975717325
-0.0002605918093440558
-0.0002307974801442706
-0.0002004880450339284
2.457883877804636e-06
0.0001036060556660735
9.440646536432308e-05
0.0001104810820868663
0.0001053574739577462
0.0001142040703868616
0.0001186746504912223
6.39817780766436e-05
9.42270120064048e-05
7.595814003266819e-05
0.0001049274505584248
8.166428972547549e-05
0.0001103050078135546
1.943576841169289e-05
-6.577353375351585e-05
2.389369909071849e-05
-0.0003318547447589854
-0.0003120147788571008
-0.0006929259128175652
-0.0005509523755302515
-0.0003966188862745047
-0.0007034103917193797
-0.0005565651567150594
-0.000399415059055021
-0.0005972671426564585
-0.0004955032783037194
-0.0003837765732619649
-0.0006046028147276643
-0.0005002706954547325
-0.0003861259554563519
-0.0005235459791664599
-0.0004493902546530504
-0.0003662948032415089
-0.0005288432888909796
-0.0004531332873968416
-0.0003684128746502323
-0.0004666609676866894
-0.000411395505417907
-0.0003481059192856425
-0.0004706065686464314
-0.0004143407397471901
-0.0003499700593918144
-0.0004230245033360752
-0.0003807043639384123
-0.0003312678563488357
-0.0004260411472698697
-0.0003830557337925426
-0.000332884441389226
-0.0003899572619141812
-0.0003565170108268918
-0.0003167796064987773
-0.0003923284114043169
-0.000358432357056915
-0.0003181811267221375
-0.0003654945145264402
-0.0003380953487970545
-0.0003050723425345221
-0.0003674206765904696
-0.000339697407935544
-0.0003063017848213727
-0.0003482343148773528
-0.0003248229259079602
-0.0002962928013046632
-0.0003498635385038592
-0.0003262094455475605
-0.0002973952501630962
-0.0003372195026446717
-0.0003162327836723602
-0.0002904609344800514
-0.0003386667655909284
-0.0003174844186952003
-0.0002914802933462778
-0.0002875549947845909
-0.0003332155450472194
-0.0003132015276704079
-0.0002885333782693587
5.711232894166771e-06
1.146968121952347e-06
-1.368728476350106e-07
1.211398415204518e-05
4.219195691515515e-06
1.542284092567084e-07
-4.935698139804515e-07
0.0002392842624148592
0.0001850585492309296
0.000139304028416393
0.0001020163344005802
7.240369879407388e-05
4.939221800674242e-05
3.19124080240898e-05
1.902311583307415e-05
9.94956768898601e-06
4.079669986362506e-06
9.393750397709097e-07
0.0002485468726233489
0.0001898487141392763
0.0001413274373638276
0.0001024021558952905
7.186880947834674e-05
4.839074752745601e-05
3.073698285993719e-05
1.78714480987967e-05
8.96892402564982e-06
3.397966690423806e-06
6.888567173138516e-07
0.0001962970531114967
0.0001590329892842128
0.000124781209887012
9.507285686073089e-05
7.027670654014796e-05
5.016575568155008e-05
3.425397736047523e-05
2.197984513436887e-05
1.279584975479999e-05
6.202309621563633e-06
1.747045273809397e-06
0.000205390959957425
0.0001646431108848471
0.0001279781763290693
9.666116997419244e-05
7.083195566432694e-05
5.009122453017412e-05
3.383220004009846e-05
2.141354820918423e-05
1.223894355205155e-05
5.783270141562966e-06
1.587094009345324e-06
0.0001494861522992346
0.0001275757324680907
0.0001046553619360542
8.302919426491207e-05
6.381896111224269e-05
4.742927131357788e-05
3.385853305765719e-05
2.28926497003602e-05
1.421652462135918e-05
7.470078883053115e-06
2.266254200645311e-06
0.000157630052863867
0.0001331665641228344
0.0001082979692680716
8.525152884420229e-05
6.50435022948325e-05
4.797978376877483e-05
3.397891347246107e-05
2.276755465822847e-05
1.398987980944639e-05
7.260476893402962e-06
2.179386202150727e-06
0.000300878750123365
0.0003166210183739466
0.000233009489660557
0.0002468878685631826
0.0001662909473253614
0.0001775636498711835
0.0002529856303208457
0.0001920821393118745
0.0001421581572210329
0.000102415794626713
0.0002098897337994328
0.0001673707554658063
0.0001294709556607411
9.734136774057947e-05
7.100214141596268e-05
4.996030919666644e-05
0.0001100596073690693
8.629167216131586e-05
6.558443647571583e-05
4.818983982784679e-05
3.398333052144005e-05
2.266021280909378e-05
0.0003240350669975267
0.0002537291462987957
0.0001617058341214865
0.0001359286946939259
0.0001832203113286035
0.0001549300867330231
0.0001711240366890984
0.000172827312886575
0.000185810731021077
0.0001801803256064585
0.0001930211592456218
0.0004263468912799468
0.0003653835442279329
0.0004594248295522108
0.0003891203669413409
0.0004765974508187207
0.0004003341893822495
0.0002655607309391164
0.0002610378860093191
0.0002974210420762632
0.0002813687204905278
0.0003115784890948579
0.0002911550142918397
-0.0001089633783621821
0.0002096009144305009
0.0002543524455319
7.144199206224104e-05
4.775734993631487e-05
3.004374220713798e-05
3.354406559246424e-05
2.107003447742511e-05
1.19168573416586e-05
1.384354308595727e-05
7.135131044596687e-06
2.128892085880002e-06
-0.0002167775438134507
-8.348695151851886e-05
7.374520879464399e-06
-0.0001413035012581937
2.215376920597635e-05
0.0001096254438649028
-0.0002078109995284317
-7.19902020230646e-05
-0.0001945794682024985
-0.0001136799838144315
3.945894040155838e-05
0.0001278811671901898
7.750722905049893e-06
4.638867398456116e-05
0.0001265446681116942
0.0002895588112360672
0.0005357214845357342
0.0005314823263101299
0.0005385914380518878
0.000585591145562394
0.0005586111944064982
-9.124633190968019e-05
0.0002234901286086025
0.0002877136948574331
-6.552100671824525e-05
0.0001444818053446054
0.0003029240800579053
2.329978800674306e-05
1.107067325284083e-05
3.400647553159102e-06
-3.856059956581361e-07
-6.865880611400825e-07
1.721539887673919e-05
8.421766001795315e-06
3.022621619540472e-06
5.518839536730946e-07
5.546928629625847e-06
1.497954001527145e-06
-0.0003891087760619461
-0.0007175938776504678
-0.000298131728230015
-0.0007837566208089968
-0.0002413146282246112
-0.0008230310425912248
-0.0006206088651496871
-0.0003974891209395586
-0.000835379623466764
-0.0006225160033309765
-0.0004041919401566319
-0.00101807163674067
-0.0007278559219316552
-0.0002986848029016321
-0.00102916069056533
-0.0007667792465859013
-0.0003570449358527446
-0.001797266737925143
-0.0008998033717864721
0.0001965229809646739
-0.001880023372755687
-0.000903747523658247
0.0002552548202079847
-0.001270666690933672
-0.0007801094011794603
-0.0002315286465251882
-0.001277999869567974
-0.000828893465421474
-0.0002089946785967389
-0.001132084566906297
-0.002020569839255345
-0.001362490953909918
-0.0008922758306950332
-0.001144692389037552
-0.00212545200278634
-0.001371992045692346
3.15008829212538e-05
1.116118366453431e-05
-1.941761732186255e-06
-9.365524777083082e-06
-1.2026442205938e-05
-1.032238231136025e-05
-4.199711272862816e-06
5.01797852511097e-05
2.225062424462301e-05
3.718546849936508e-06
-7.825078824942942e-06
-1.388879539928553e-05
-1.530504887698403e-05
-1.237073146497859e-05
-4.91132670079951e-06
0.0002930692280099483
0.0001926445511123786
0.0001270817221697942
8.063034797338723e-05
4.756444658668874e-05
2.442126414531654e-05
8.798160488627971e-06
-9.342071649418491e-07
-5.808995384504898e-06
-6.384887646701103e-06
-2.820648670790724e-06
0.0002875880737300273
0.0001864002837737863
0.0001193181760410198
7.311961511807333e-05
4.09433955192311e-05
1.882586873763671e-05
4.209867538056771e-06
-4.560818690803682e-06
-8.492260799700406e-06
-8.085660887556733e-06
-3.416138948327039e-06
0.0002812853724979019
0.0002036476353773465
0.0001414702117372124
9.495788225467903e-05
6.078421325221673e-05
3.608741857059731e-05
1.872042542863442e-05
7.144821573725827e-06
3.113778128856611e-07
-2.434821288039352e-06
-1.422928606826504e-06
0.0002912730461158773
0.0002029753704756427
0.0001380363855717118
9.076558528130715e-05
5.661116664688092e-05
3.227208031817048e-05
1.541426944559778e-05
4.425053689301761e-06
-1.759946762681616e-06
-3.77427511679178e-06
-1.896985666800313e-06
0.0002714958229885201
0.0002012855565113052
0.0001455168625886478
0.0001022564121223532
6.931429714055316e-05
4.46701668716626e-05
2.665966510653129e-05
1.399186035448874e-05
0.0002798198457858795
0.0002040226343420251
0.0001453819579530686
0.0001007336965075477
6.720358792437932e-05
4.24146583684636e-05
2.451375398976707e-05
0.0004472969853774276
0.0004351867577963317
0.0004101500566785837
0.0004210031046723196
0.0003625600956866282
0.0003776256175288526
0.0002833358230955893
0.0003838132491634214
0.0004858019554970168
0.0006071937819476853
0.0005038863421642715
0.0006340082917201657
0.0005133096255762248
0.001037513782794446
0.0005678278654639471
0.0007479189979734136
0.0007810342042220042
0.0005569529472262566
0.0008184014714335672
0.0005575406058114679
0.002375722749514714
0.001918237539350241
0.001112567993812042
0.001482968757103193
0.0009521764519227634
0.0008588720999534402
0.0002828133312586048
0.000293095009714915
0.0002020399629432803
0.0001358779860495576
0.0002050750052732152
0.0001450210882691037
9.970071766142238e-05
6.591848229368191e-05
0.0004288256647289725
0.0004232939912688165
0.001056634680712815
0.0005586339799823234
0.0007045564702562886
0.0006360174444803344
0.0006315328030953956
0.0006601952320247792
0.0006679428777124339
0.002599494403302748
0.002031601094878144
0.001136702088502767
0.0029131640685918
0.002179298267054781
0.001158351604784346
0.001054715693518394
0.0009714394129997065
0.0009015266478649937
0.001079975354938562
0.001139862998618639
0.0008964918423736722
0.0003902835444988877
4.386943071216397e-05
1.708957054108894e-05
0.0001820685890844692
0.0001147389767262917
6.881923295124856e-05
3.72081624641501e-05
1.5711418041863e-05
1.685947619375205e-06
8.827842659402958e-05
5.420590031229097e-05
3.011880854384925e-05
1.357809112702833e-05
2.932932085137255e-06
-2.885845782559714e-06
4.110348161033849e-05
0.001184531426522757
0.002447718369518125
-0.000156357259902828
0.001445154330100312
-0.002084759789339071
0.001602007109705989
0.002706175591021025
-0.001994721562278911
0.002276743139302223
0.003074617667265664
-0.002600253661447348
-9.200573695166328e-05
0.000983368900088655
-0.002617343785846125
0.0001162544592521459
0.001009902441614568
-0.001896688515542806
-0.0008817462165835984
0.0002981253714323846
-0.001986882555310503
-0.0008783363473896201
0.0003675727078638506
-3.93152435343404e-07
-1.104372452290404e-05
-1.634265179477635e-05
-1.707166748542951e-05
-1.346881737523124e-05
-5.291693037067228e-06
-6.536475468583762e-06
-9.942888182805368e-06
-8.999896538449438e-06
-3.735194506404757e-06
-4.497435306617647e-06
-2.151943167315895e-06
-0.003634875149559689
-0.003432789671928094
-0.002153620610029217
-0.003663764851747425
-0.003473084971048545
-0.002270795023297749
0.0004776863119019717
0.0005184058846474793
0.0003351185466731474
0.000112533094190271
9.734809508058736e-05
0.000258790703668879
0.0002783080061265566
0.0003451056594839258
0.0003629783271143894
0.0005526177595340739
0.0001026163693143697
0.0001110316954940424
0.0002866947257835142
0.0002963007131291312
-0.001768875902600222
-0.001107888069584913
-0.001502627236286616
-0.0010445829804384
-0.0008978575540021463
-0.0003422620778452722
-0.0008932442463761844
-0.0004744463016494115
0.000175395858245901
-0.0001876653011564578
-5.00186717196345e-05
-0.0003522353641018938
-0.001228613463224054
-0.00142281075859565
-0.0008875181159516324
-0.001016748510045052
-0.00111567584120831
-0.001864416040285717
-0.001133010950388621
-0.001575360697796012
-0.001524207838369966
-0.00105394137963069
-0.001074438818523227
-0.000330955840236709
-0.0009031394743396344
-0.0003026386718392496
-0.0008989677227693636
-0.0004684159577247147
-0.0009104178833975623
-0.0004595175277243381
0.000244477216573091
-0.0001734810543437772
-0.0001379938406504036
-8.50941722358596e-05
-8.356903124499833e-06
-0.0003433465014810565
-0.0003301695207139777
-0.001136884544595476
-0.001904221688846633
-0.00114302437647088
-0.001587136233469204
-0.001605316196759648
-0.001079313448206007
-0.001087309468943427
-0.0002958341121987685
-0.0009048820787842024
-0.0002854248599063214
-0.0009134269521776293
-0.0004580111951068639
-0.0009187363536678615
-0.0004575203244179157
0.0002725089795208474
-0.0001294714711156973
-0.0001162463829605667
-7.570972380702144e-07
9.623493397785169e-06
-0.0003276409271853107
-0.0003215887972217137
-0.001489809121311993
-0.001239804566357831
-0.001442628577854545
-0.0009054670646319
-0.001026194789695003
-0.0009534862188836949
-0.001045378053679532
-0.0005903389216406864
-0.0008879141763755731
-0.000486624701401527
-0.0008109806356782513
-0.0005913869421017379
-0.000898433512514722
-0.0004870957363560472
-0.001287218578496025
-0.001500475924376214
-0.001516825557850156
-0.0009639240840580888
-0.0009725264164055881
-0.00105030001125344
-0.001058522010018539
-0.0005902171405017581
-0.0008438443323898221
-0.0005911337035744627
-0.0009020092070596783
-0.000486871187791443
-0.0009082342081529972
-0.0004935309899604681
-0.001984818395834169
-0.00164769207128321
-0.001308833701868323
-0.001550912234872933
-0.002105602386101908
-0.00173445114006997
-0.001673368043985658
-0.00162902460759238
-0.001323332030821043
-0.001573970625452494
-0.00215621003245771
-0.001748627498873086
-0.001770502042468362
-0.001383544994466392
-0.001641738457825294
-0.001661228210239881
0.001040580264961902
0.0009820926546667823
0.0009976611456282806
0.0009073209268154505
0.0008284906772786337
0.0008509721600505915
0.000808658804118605
0.001712597879263962
0.002167117026534745
0.00161273954303028
0.001664531772286313
0.001549395391940478
0.001322751301039304
0.001017304557978897
0.001425396838328722
0.001242804536420007
0.0009019204546760637
0.001006876842570152
0.001450290655971411
0.001009401704319856
0.001407140261033458
0.001231544096812065
0.0009766360503802481
0.0009417870042488414
0.0011659129078711
0.0003655970368401255
0.0005438264029439388
0.000743856871218346
0.0008771723469813692
0.000660343374210277
0.0005937598231650758
0.0008741905133795892
0.0008906804049850134
0.001003705692641371
0.001010248323598053
0.001059738028257025
0.0008048818262148045
0.0008254596112790747
0.0008252297439248999
0.0008852376304767697
0.0006079038969274521
0.0006409537747671179
0.0007171268375750292
0.0008931077433000917
0.0009200853481417568
0.0009901955411562072
0.0009530714769234917
0.0004585079042756116
0.0004789995418014866
0.0006523970665049496
0.0008965339415707653
0.0009296803045379003
0.001004440155410578
0.001032418727512757
0.0007176981588513498
0.000676895795210576
0.0007239844601591807
0.001007531578208764
0.0009630875717408345
0.001033222904514455
0.0009784463313599475
0.002781628855544634
0.001790591704812637
0.001977493591119408
0.002398375665989301
0.00166718107289206
0.002458252773532055
0.001794553242498737
0.001771526521926786
0.001596806146717424
0.001352627516097024
0.002118986296324677
0.001797539358366084
0.001706816185957376
0.001420468556237581
0.001145603220168689
0.00102517362272572
0.001053463169569579
0.001474424780954818
0.00126816026477203
0.001509223989503252
0.001325236233992697
0.002987906463311652
0.002021208641006295
0.002087951718433566
0.002579843306273102
0.002600198691137922
0.001823727945334774
0.001867717668709576
0.001848085657104211
0.002212422494964001
0.001856196129659548
0.001731826447963825
0.001435367548073432
0.001769312959301023
0.001456707485562676
0.0010584332386109
0.001087119214179846
0.001163892687222186
0.001532107405747889
0.001544265098719789
0.001337504757572388
0.001354764619360517
0.001551672708668479
0.001716466297853985
0.0009469547857488491
0.001043566001269597
0.001500342392980914
0.001129923827396259
0.001617810146773396
0.00104279124826372
0.001451327759971431
0.001260445017682754
0.001121200971895552
0.001035313486856929
0.0015542577165462
0.001327051085191374
0.000895168638041668
0.0009904005261908127
0.001018870173188103
0.0009579572995520625
0.001190434075531341
0.0009882438426892931
0.001248277244721077
0.001118593254704055
0.001755052533382109
0.001813985354190446
0.001150275737892844
0.001181194062306863
0.001644834199323735
0.00168565794178732
0.001049833443626368
0.00116794059542231
0.001068842567875845
0.00157780287951274
0.001341761802881927
0.001613155295926726
0.001362060915299184
0.00089890659829945
0.001024371227580258
0.001054499270700818
0.001002899832523155
0.001019246844255314
0.00126039141407193
0.001275253519929081
0.0005591472898224041
0.0006142114127647392
0.0004459219835267897
0.0008748931938402424
0.0007825827984633624
0.000909525880637916
0.0009859684632879263
-0.002266838345412075
-0.002511512070165801
-0.0002305625417808705
-0.0004201672141217207
0.002021448575373807
0.0001123111127273971
0.001195379909327375
0.001697475838170127
0.002407665221937146
0.001404622764697952
-0.002487146396871861
-0.002264826107087843
-0.0006438827569124083
-0.001013446333906315
0.0008825715500314769
-0.0006518405604641619
0.0002043117398591226
0.0008237223622985086
0.001098862651689289
0.0004114484767142884
-0.00186575087611435
-0.001116560256750115
-0.002167501254252286
-0.001068130108924895
-0.000882136410714626
-0.0002729858020140045
-0.0007430034317032081
4.797573015671059e-05
0.000273975712175759
-0.0001071319016027135
0.000659200894068597
0.0002462862739661521
-0.00259441916496922
-0.002184008461866122
-0.00253880567748422
0.0002450098621034352
-0.0003500801966268262
0.0003918690494088491
-0.000164323899189907
0.002631928807299189
0.0002002092533662256
0.001301872272300904
0.00198035498028188
0.002807029688081455
0.0004281019289867771
0.001568045162485752
0.002919204631350216
0.001783438036592069
0.001991078795755896
0.002773811705133434
0.00150902365628029
0.00308715765335138
0.001767583004586593
-0.001933574855409882
-0.00260549516616686
-0.002621584024292619
0.0007258291508046302
0.0007867026560223802
-0.0001172158163738741
-4.273598016549273e-05
0.003187679314862741
0.00245440085067253
0.003255198503759238
0.0004849615861521692
0.001632563415380435
0.0005743775349673269
0.001732831007090836
0.003163567512300793
0.002039979487208871
0.002114912061554069
0.003322590471699126
0.003460143741671236
0.001829781815630084
0.001926104780546169
-0.002397517059740584
-0.002522273752990811
-0.002304456122665861
-0.0005961248889813101
-0.00100347993311018
-0.0004690427824853302
-0.0009749068447223877
0.0009685061347007655
-0.0006299683524526969
0.0002476280509941794
7.470807611924528e-05
0.001182861894154086
-0.0005727258288177289
0.0003550689539144074
0.001519735151082459
0.001699927266633776
0.0008705572415550309
0.00118488247959536
0.0004577872852310573
0.001397580981784413
0.0005717638462880918
-0.002643326818798386
-0.002419023322092837
-0.002452330508918994
-0.0004367515980882699
-0.0003857979961093298
-0.0009673279405224029
-0.0009554484774721738
0.001234725619583837
0.0001814388070835833
0.001315196778175125
-0.000558398388747594
0.0003809210652304577
-0.0005361080502451908
0.0004207951852299296
0.001050507402198665
0.001742378038766612
0.00180741831362867
0.001448675112905622
0.001527698802662053
0.0005990047540739914
0.0006409258510348755
-0.001122952182634196
-0.00196986774141249
-0.001136675536404404
-0.002295405127959606
-0.002205589780885149
-0.001064609460756009
-0.001052715286499067
-0.000257707631087107
-0.0008791923150750443
-0.0002196823676954134
-0.0007290588920893268
8.19299469274481e-05
-0.0006920682616553077
0.0001660473499680581
0.0003546513311501241
-8.869874467798803e-05
-4.316802196049691e-05
0.0007943171323136843
0.0006989177642515094
0.0002835331054707257
0.000375016938151925
-0.001139635336623832
-0.002013266693899979
-0.001144320017664543
-0.002316235965982734
-0.002348525645413006
-0.001049293357007489
-0.001043954543486752
-0.0002105482067482426
-0.0008771499526785056
-0.0001965757447381841
-0.0006827392545404343
0.0001862566897366575
-0.0006682882666652639
0.0002173550116436965
0.0003877898359020721
-3.230058811618228e-05
-1.561759467404651e-05
0.0008167191502230995
0.0008510083295756601
0.0003968457007167189
0.0004303740060312186
-0.003485150209472403
-0.003330108169319319