/*--------------------------------*- C++ -*----------------------------------*\
  =========                 |
  \\      /  F ield         | OpenFOAM: The Open Source CFD Toolbox
   \\    /   O peration     | Website:  https://openfoam.org
    \\  /    A nd           | Version:  7
     \\/     M anipulation  |
\*---------------------------------------------------------------------------*/
FoamFile
{
    version     2.0;
    format      ascii;
    class       surfaceScalarField;
    location    "0";
    object      phi;
}
// * * * * * * * * * * * * * * * * * * * * * * * * * * * * * * * * * * * * * //

dimensions      [0 3 -1 0 0 0 0];

internalField   nonuniform List<scalar> 
36694
(
1.795143447291542
3.341657382564145e-05
-0.0001601460490983268
-1.795142799903397
0.0001744193649154008
1.795144999926753
2.623393014229895e-05
-0.0001258915276591727
0.0001361130197557265
1.795146782095483
1.972209293654686e-05
-9.472176028884484e-05
0.0001018267930259317
1.795148337898987
1.372525228939872e-05
-6.595212459714617e-05
7.059954267242965e-05
1.795149377568811
8.091480171338904e-06
-3.889084542935221e-05
4.151529639841592e-05
2.673333963136905e-06
-1.285046435256417e-05
1.369864309971031e-05
1.795135185953965
-0.0002041265764116673
-4.142598808550691e-05
-1.795135486328046
2.119851583810966e-05
0.0002246544227421951
1.795136619290885
-0.0001647371551748998
1.707890936497206e-05
0.0001796414806215018
1.7951388096115
-0.0001293381719920106
1.33945915514738e-05
0.0001399871881595516
1.795141081348841
-9.721839915943774e-05
1.00619425937866e-05
0.0001046068102050768
1.795142982294367
-6.764044502370183e-05
6.998435724860947e-06
7.246631428882856e-05
1.795144226943568
-3.986687757164417e-05
4.124253757620207e-06
4.258945351010013e-05
-1.316975202805643e-05
1.362353017322505e-06
1.404920966541212e-05
1.795235089121668
6.643738351512668e-05
-0.0003355011086263459
-1.795265942054005
0.0003950488385297917
1.795213470575355
5.765790014315389e-05
-0.0002923154567620229
0.000339089455109391
1.795198859450293
4.937258848580822e-05
-0.0002510426189976839
0.0002873857284226662
1.795189386054806
4.169976459600312e-05
-0.0002124518045878432
0.0002404206406305858
1.79518355092666
3.46651014169197e-05
-0.0001768244088476051
0.0001981351124085333
1.79518019225651
2.823587878054925e-05
-0.0001441133672654788
1.795178435863405
2.234466839142493e-05
-0.0001140609961511885
1.795177643401124
1.690483618478932e-05
-8.628121340773831e-05
1.795177366643605
1.182011807604744e-05
-6.031397984076087e-05
1.795177311191878
6.990106168287424e-06
-3.565944573855866e-05
2.313043431949852e-06
-1.179809428773332e-05
1.795226743125291
-0.0003478053950787356
-1.795257371038925
3.417551862029941e-05
0.0004106951734963008
1.795205594350945
-0.0003023544954139735
2.960232143678495e-05
0.000351558848373834
1.795191565472086
-0.0002591403021776445
0.0002972364001500515
2.530536897182896e-05
1.795182698728121
-0.0002189137420591608
0.0002481390872999075
2.134116261309838e-05
1.79517743914689
-0.000181920491094445
1.771859517181665e-05
1.795174591924631
-0.0001480712318544337
1.441717584812241e-05
1.79517326462292
-0.0001170655402660076
1.139933623584035e-05
1.795172809740968
-8.847702244096922e-05
8.618339249664069e-06
1.795172775113534
-6.180877134818581e-05
6.02307000185931e-06
1.795172865059116
-3.65274320328076e-05
3.560713805286325e-06
-1.208266627729819e-05
1.178056569184385e-06
1.795281414546693
5.255298293579746e-05
-0.0002811897637382915
-1.795312756510825
1.795257744116887
4.632965005705431e-05
-0.0002482305268215175
1.795240255974425
4.023500237253057e-05
-0.0002156967330064319
1.795227603707636
3.440798634605428e-05
-0.0001844309693899333
1.795218640194481
2.891458125701339e-05
-0.000154875421475964
1.795212429557665
2.376974597536008e-05
-0.0001271786660313096
1.795208235349747
1.895428129294916e-05
-0.0001012830342049054
1.795205498558565
1.442704177365681e-05
-7.699147096824232e-05
1.795203813662981
1.01333657287671e-05
-5.401623189431599e-05
1.795202907360973
6.010653238531963e-06
-3.201302389873667e-05
1.991926762237292e-06
-1.060436319638758e-05
1.795275498490874
2.697289702218877e-05
-0.0002907792661504076
-1.795306944533667
1.795251950392428
2.37418790455606e-05
-0.0002562186259156349
1.795234716667313
-0.0002222614357176593
2.058986056348938e-05
1.795222381539425
-0.0001897569372735403
1.75863084965755e-05
1.795213749385439
-0.0001591366584463572
1.476290140415636e-05
1.795207851856553
-0.000130529205373301
1.212524682703703e-05
1.795203931642679
-0.0001038527615717838
9.661714637529654e-06
1.795201416882773
-7.888496675596146e-05
7.349744153728466e-06
1.795199894509421
-5.531317687420866e-05
5.160142989346639e-06
1.795199087059117
-3.27692216303906e-05
3.05989205425553e-06
-1.085279422807783e-05
1.013902753163898e-06
1.795272427004416
-0.0002957392087568252
-1.795303913698916
0.0003541883223667682
-0.000260341167750866
0.0003075479901886353
1.795248954004848
1.795316770054672
4.173199845799645e-05
-0.0002324174138208419
-1.795347108391198
1.795292643250276
3.731572079682728e-05
-0.0002075121242261871
1.795273794886686
3.282726178863841e-05
-0.0001821659495771218
1.795259308064516
2.83980586782527e-05
-0.0001571761500393435
1.795248350617094
2.410611704532206e-05
-0.000133030369743085
1.795240207907623
1.998893100727576e-05
-0.0001099730552560629
1.795234293008789
1.605455002688123e-05
-8.806590738787597e-05
1.795230144191281
1.229038361870111e-05
-6.723842535372172e-05
1.795227416593958
8.669867320340738e-06
-4.732789773152329e-05
1.79522587251872
5.157344737791296e-06
-2.810994578712861e-05
1.711592264736395e-06
-9.321516049990551e-06
1.795312571830731
2.137599952842908e-05
-0.000239827888435507
-1.795343167209126
1.795288376408925
1.908992116591423e-05
-0.0002137974043201224
1.795269584375479
1.677455196406326e-05
-0.0001874166927134455
1.795255228037503
1.449651250595707e-05
-0.000161499053831663
1.795244436717116
-0.0001365339154677514
1.229469328952157e-05
1.79523646778671
-0.0001127585009770727
1.018715550701129e-05
1.795230714698094
-9.022207339910439e-05
8.176948681124402e-06
1.795226702437977
-6.883900847132196e-05
6.256683615348971e-06
1.795224077502176
-4.843033576838291e-05
4.41196039171115e-06
1.795222596900274
-2.875512914673682e-05
2.623853031713457e-06
-9.533870851585781e-06
8.706847295011173e-07
1.7953103986275
-0.000243651024201501
-1.795341118517705
1.795286175361086
-0.0002170342614714821
1.795267418814205
-0.0001901162880217725
0.0002256425431575154
-0.0001637182707696638
0.0001924950990439285
1.795253134933112
1.79530060154663
2.690221921802325e-05
-1.7953198321953
-0.0001508173211419717
1.795285209341616
2.352000840431827e-05
-0.0001311438877842281
1.795273084292468
2.015264664656478e-05
-0.0001117543292066074
1.795263707794572
1.684577888292321e-05
-9.292261609239462e-05
1.795256634733791
1.362148958013429e-05
-7.477120125361697e-05
1.795251502295546
1.048425392073086e-05
-5.730715443943802e-05
1.795248031769495
7.425854400996984e-06
-4.045306225929715e-05
1.795246026943933
4.4293070555227e-06
-2.407242223300855e-05
1.471966899199833e-06
-7.990209842123705e-06
1.795340494837276
1.706189740548397e-05
-0.0001945946917926197
-1.795369420059018
-3.336987210056851e-05
1.795316675105969
1.543738742881828e-05
-0.0001751917738442186
-3.02232862208623e-05
1.79529738633248
1.37282751326809e-05
-0.0001549539753195719
1.795282008243348
1.199230415889717e-05
-0.0001345932611407363
1.795269940701301
1.026783613274376e-05
-0.000114581564008435
1.795260642704545
8.577591268377503e-06
-9.519231812495548e-05
1.795253652399142
-7.654250166757205e-05
6.932221459976279e-06
1.795248594904502
-5.86306714243165e-05
5.333409688113387e-06
1.795245183176668
-4.136916479264846e-05
3.776409611116649e-06
1.795243215622449
-2.461032358580141e-05
2.252054566636967e-06
-8.167546130888398e-06
7.483357721884895e-07
1.79533895053747
-0.0001975125703972496
-1.79536803259451
1.795315050381102
-0.0001777014015049077
1.795295736075079
-0.000157077492052571
1.795280368920928
-0.0001363617387067249
1.795268333912269
-0.0001160294373702983
0.0001383301061641974
-9.635352227977583e-05
0.0001141848887628954
1.795259078574865
1.79529328514797
1.696233888637295e-05
-1.795306008600226
-9.128972293019879e-05
1.795283178891339
1.428460215002758e-05
-7.628002354920228e-05
1.795275368488065
1.162271910211978e-05
-6.163078657552463e-05
1.795269581749025
8.990771136154989e-06
-4.739013998840144e-05
1.795265603348878
6.392106155175884e-06
-3.353433356581366e-05
1.79526327839884
3.822328513597181e-06
-1.998769000135139e-05
1.27185711789889e-06
-6.639765625619159e-06
1.795361308426532
1.376930537769168e-05
-0.0001544165998006534
-1.795388281866536
-2.697395706282712e-05
1.795338384275055
1.260547387153225e-05
-0.0001401588711510898
-2.471422464507986e-05
1.795319227353666
1.133205677916749e-05
-0.0001248947740613457
-2.223433670341823e-05
1.795303474872524
9.9967190359697e-06
-0.0001092098323187685
-1.96276671697866e-05
1.795290739624482
8.634027155451918e-06
-9.351800558121681e-05
1.795280648438768
7.267265492490994e-06
-7.808379729555096e-05
1.795272866492525
5.910483675522242e-06
-6.304832176056139e-05
1.795267111393121
4.570484187563746e-06
-4.845528694218766e-05
1.795263160454001
3.248604762973065e-06
-3.427472594806177e-05
1.795260853856973
-2.042365355057571e-05
1.942254347844144e-06
-6.783698928987722e-06
6.462179619447442e-07
1.795360202059214
-0.0001566106803078785
-1.795387338470917
1.795337173732925
-0.000142070980159855
1.79531795794823
-0.0001265324872250064
1.795302179463553
-0.0001105888158298111
1.79528944034668
-9.465805855716992e-05
1.795279358648056
-7.900587702071371e-05
1.795271592655516
-6.377243438054176e-05
7.744796059245835e-05
1.795265854781485
-4.899906974010397e-05
5.930677219725023e-05
-3.465254408768042e-05
4.183690280791973e-05
1.795261918604639
1.795290644487805
1.002314431214066e-05
-1.795298893187647
-4.876838702026299e-05
1.795284444929113
7.788838214120474e-06
-3.760017871476563e-05
1.795280134888737
5.556632728734072e-06
-2.666009836696352e-05
1.795277596771798
3.330378607576962e-06
-1.591161190049133e-05
1.109439927740561e-06
-5.289247087259026e-06
1.795376602750267
1.129346147266197e-05
-0.0001184849764803614
-1.795401671897881
-2.215593681117653e-05
1.7953547581343
1.044781218547413e-05
-0.000108251741326467
-2.0510325499301e-05
1.795336052654713
9.484028812068524e-06
-9.704373373951381e-05
-1.862958962623161e-05
1.795320307559118
8.440646714605127e-06
-8.531620303756215e-05
-1.65891809722724e-05
1.79530729596272
7.347568804347708e-06
-7.340607821664263e-05
-1.444790061253604e-05
1.795296777054753
6.226772452322792e-06
-6.154247485312681e-05
-1.224918812218461e-05
1.795288520500572
5.093380662418858e-06
-4.986200619418644e-05
1.795282322938785
3.956868896240445e-06
-3.842575774191484e-05
1.795278018555911
2.822267294533364e-06
-2.723597933053841e-05
1.795275485491967
1.691290990518783e-06
-1.625150316455121e-05
5.633751176291235e-07
-5.401594194468899e-06
1.795375798854913
-0.0001200935148020221
-1.795401025150078
1.79535384193774
-0.0001096686201051966
1.795335060789602
-9.826936998267666e-05
1.795319268451935
-8.635754596948395e-05
1.795306230505682
-7.427391650850137e-05
1.795295699624189
-6.224928373741812e-05
1.795287440104069
-5.042032284132324e-05
1.795281244358143
-3.884701578107016e-05
1.795276943421562
-2.752971091450153e-05
1.795274413266941
-1.642482026246551e-05
2.064605602528995e-05
-5.458874435334227e-06
6.857113847846819e-06
1.795291664834025
4.906797235193561e-06
-1.795296180397973
-1.987365472883797e-05
1.795288991425868
2.946838570769472e-06
-1.187359722621176e-05
9.826652268784037e-07
-3.94900805482677e-06
1.795387579983377
9.478354963149106e-06
-8.593788618514962e-05
-1.795410986848331
-1.861857989860478e-05
1.795366781009768
8.848978101383675e-06
-7.891045493870655e-05
-1.739129036987013e-05
1.795348632824739
8.100996595317396e-06
-7.106761791479998e-05
-1.592892745411437e-05
1.795333083598639
7.265574721712718e-06
-6.274002896233803e-05
-1.429252324160861e-05
1.795320022098457
6.368282883842476e-06
-5.418054414700922e-05
-1.253231779690748e-05
1.795309306741135
5.429195304587836e-06
-4.556841629137073e-05
-1.068789793349487e-05
1.795300788210942
4.463365097368176e-06
-3.701775977287295e-05
-8.789082771779068e-06
1.795294326259751
3.481512980427294e-06
-2.858808262722357e-05
-6.857238492604835e-06
1.795289801648321
2.490814756525582e-06
-2.029538776238127e-05
1.795287124233589
1.495716543183794e-06
-1.212296757042688e-05
4.987389597842964e-07
-4.031510621090293e-06
1.795386981681997
-8.706277501922114e-05
-1.795410535771623
1.795366069959849
-7.990954207437689e-05
1.795347838651821
-7.193852759604225e-05
1.795332230610589
-6.348518929309236e-05
1.795319129378319
-5.480544287554236e-05
1.795308388598801
-4.608013836815417e-05
1.795299854837775
-3.742383166736396e-05
1.795293384477253
-2.889560492015035e-05
1.795288855683074
-2.051041384838448e-05
1.795286176481778
-1.225008188164867e-05
-4.073560561638385e-06
8.895676805564752e-07
-1.795297492165068
-2.622449557528536e-06
1.795395118337527
8.209008119365176e-06
-5.590768326868555e-05
-1.795417215505434
-1.614204269953324e-05
1.795375194053104
7.72158838350529e-06
-5.151795859781316e-05
-1.518979978984583e-05
1.795357565863407
7.11824485725418e-06
-4.654940702231158e-05
-1.400826613437152e-05
1.795342265392952
6.424721043174782e-06
-4.121639541933765e-05
-1.264788468446894e-05
1.795329260363138
5.66313477564338e-06
-3.568654454342649e-05
-1.115210549151856e-05
1.795318479065333
4.85175799032627e-06
-3.008195364095912e-05
-9.556924230066851e-06
1.795309830760036
4.005145521010478e-06
-2.448349527027024e-05
-7.891106471941196e-06
1.795303221867374
3.134498734050324e-06
-1.893681268327896e-05
-6.176877905775157e-06
1.795298568236809
2.248175054417356e-06
-1.345902845439895e-05
-4.430905318186929e-06
1.795295803972499
1.352278251397473e-06
-8.045538533618668e-06
-2.665444143032373e-06
4.512889747965182e-07
-2.676571938642347e-06
1.795394654984143
-5.662024109859169e-05
-1.79541688960731
1.795374620499661
-5.215456844016527e-05
1.795356906582327
-4.710739859954102e-05
1.795341541410005
-4.169621845662164e-05
1.795328489048091
-3.60907344090036e-05
1.79531767425434
-3.041423298030969e-05
1.795309003101435
-2.474804114244943e-05
1.795302379305926
-1.913768899532621e-05
1.79529771657492
-1.359976778658734e-05
1.795294947469556
-8.12884960721405e-06
-2.704150126523882e-06
1.7953998272131
7.404943756865799e-06
-2.754066720943752e-05
-1.795421027140392
-1.457203213531128e-05
1.795380523838645
7.003225218996251e-06
-2.543176376248111e-05
-1.378604513066626e-05
1.79536328660671
6.488596113740542e-06
-2.302382306409096e-05
-1.277694822954804e-05
1.795348197286552
5.883279223498326e-06
-2.0422044297419e-05
-1.158831074238033e-05
1.795335272430668
5.207038924778679e-06
-1.770976418777486e-05
-1.025896438912901e-05
1.795324484554463
4.476807393830146e-06
-1.494863443856114e-05
-8.822251812032505e-06
1.79531578070908
3.70662672436751e-06
-1.218038384109832e-05
-7.30589455274209e-06
1.795309097908874
2.907825924047773e-06
-9.429516181214128e-06
-5.732324102819519e-06
1.795304375309542
2.089362003707127e-06
-6.706454947824626e-06
-4.119337961955539e-06
1.795301563284872
1.258268386050105e-06
-4.010813338376938e-06
-2.480970252541105e-06
4.20169200643904e-07
-1.334612856544243e-06
-8.284949128024441e-07
1.795399445329419
-2.788602356077709e-05
-1.795420775321794
1.795380034619365
-2.574140204727114e-05
1.795362711177342
-2.329611797335928e-05
1.795347554435617
-2.065689959351857e-05
1.795334578254318
-1.790813309394638e-05
1.795323752401472
-1.511209409235498e-05
1.79531502134907
-1.231078109587003e-05
1.795308319856611
-9.528688727851974e-06
1.795303585251173
-6.776022004772878e-06
1.795300766566825
-4.052027173084584e-06
-1.348261315951589e-06
1.795402089442437
7.015236817136934e-06
-1.79542283461781
-1.38107283498706e-05
1.795383106846463
6.653823243199737e-06
-1.310299065274656e-05
1.795366077545413
6.181333146374163e-06
-1.217585535511149e-05
1.795351106760485
5.618263857401669e-06
-1.106952378996813e-05
1.795338234305849
4.983195522001472e-06
-9.820506097286735e-06
1.79532745406817
4.292356279595105e-06
-8.460754480704719e-06
1.795318731576048
3.559483880680245e-06
-7.017377331960872e-06
1.795312018947774
2.795917656803158e-06
-5.512807346344404e-06
1.795307266935299
2.010861157880712e-06
-3.965305223116539e-06
1.795304434056053
1.211761870816896e-06
-2.389697100374303e-06
4.047680163160571e-07
-7.982655890025956e-07
1.795401745873662
-1.79542261719741
1.795382657685565
1.795365542277672
1.795350503048653
1.795337577576797
1.795326757381345
1.795318005710907
1.79531127265344
1.79530650729154
1.795303666907524
-2.922564020835239e-05
5.946097912844673e-05
7.669841682925653e-06
-1.795443844192476
-1.508812823745073e-05
7.243949925039446e-06
-1.795445047472029
-1.425673517192553e-05
2.9603063351065e-05
-1.795444976703678
-1.795144026196089
0.0002177408625396465
-5.040941272109199e-05
-1.795138898584186
2.58339007555016e-05
0.0002761268537883235
7.545357293827133e-05
-0.0003791426474464288
-1.795308509185293
0.0004539314024163318
3.889507675634797e-05
-0.0003940189740041418
-1.795300144894615
0.0004733513260113402
-0.0004017589346352138
-1.79529574603524
1.795252884508962
0.0004834977938159567
5.8666831354057e-05
-1.795353272353353
-0.0003132133953856014
3.016115185467045e-05
-0.0003245468970116963
-1.79534791093073
-0.0003304224167615204
-1.795345101707664
2.353109897610982e-05
-0.0002643014131833338
-1.795381065907993
-4.587788360704578e-05
-0.0002687409602288953
-1.795379277711138
1.852142614161977e-05
-0.0002121781128146957
-1.795403879393657
-3.618539124516928e-05
-0.000215509962913786
-1.795402748236828
1.476170049660859e-05
-0.000166899102272015
-1.79541942958376
-2.889299308899869e-05
-0.0001693697248302052
-1.795418721092034
1.19738010546655e-05
-0.0001271685926149773
-1.795429901800997
-2.347440678236615e-05
-0.0001289595401487986
-1.795429464201064
9.952860375834343e-06
-9.174438694036394e-05
-1.795436823929311
-1.953998425947799e-05
-9.29859701958872e-05
-1.795436558155611
8.551833223321187e-06
-1.795441241792197
-1.680895306156914e-05
-6.02425956223644e-05
-1.795441082152941
-1.795443745602444
0.0004098415528375199
6.263031938402719e-05
-0.0003334009538882299
-1.795402838183065
-0.0002781702697328889
0.0003461916892817385
-1.795425644270939
2.475394396070004e-05
-4.819700017871624e-05
1.920404933386521e-05
-0.0002208308339227047
-1.795442944938031
-3.747793999286389e-05
-0.0002244587535642495
0.000283088558633572
-1.795442180059865
1.511023294584785e-05
-0.0001721260311303036
-1.795453695612522
-2.954900622682305e-05
-0.0001747780288251302
-1.795453295542071
1.21176662134409e-05
-0.0001302023789513385
-1.795460203465325
-2.373965331404787e-05
-0.0001321027765377921
-1.795460024273492
9.973219931347788e-06
-9.3416058701613e-05
-1.795464014435286
-1.956903343369731e-05
-9.472186406673504e-05
-1.795463967315236
8.499723307589119e-06
-6.031025589771821e-05
-1.795466148080703
-1.669923701615688e-05
-6.112712710324808e-05
-1.79546617795063
7.57794965123848e-06
-2.957501056144452e-05
-1.79546725521443
-1.490217219962402e-05
-2.99679696666999e-05
-1.795467327174375
7.134526816787847e-06
-1.79546771984246
-1.403716638502829e-05
-1.79546781031064
-1.795148479808924
0.0002670678111096156
3.105397600015237e-05
-6.048828161001655e-05
-1.795147322439039
0.0003350945597740033
1.795131269753071
-1.795131079815256
-0.0002072104647330872
0.0002282181861989409
1.795133116886266
-0.0001670959701158566
0.0001823277501260984
1.795135641512086
-0.0001311063572879689
0.0001419767110881764
1.795138169102625
-9.849771323279951e-05
0.000106032557495972
1.795140250025135
-6.85048092554652e-05
7.342275837805412e-05
1.795141764143112
-0.0003580268717253958
-3.690096711247241e-05
-1.795157162330998
0.0004103161427302382
1.795133936250158
-0.0003023307869868932
0.0003412073100159854
-0.0002521205294074665
0.0002808083674868206
-4.036628386305807e-05
1.795141601411678
4.313944184721342e-05
1.795363666108983
8.955235846631573e-05
-1.795434097196061
0.0005522725119639915
-0.0004445556492647571
8.203875877703482e-05
0.0004996027608093388
1.795356152509296
4.632769880430413e-05
-0.0004644652198329455
-1.79542832132158
0.0005798586915872761
4.237795485195761e-05
-0.0004270412149068223
0.0005227096336126708
1.79535220276534
-0.000474863334281437
-1.795425391096924
0.0005943588627950191
-0.0004360144648920539
0.0005348290435710302
1.795398382497812
3.459426047812696e-05
-0.0003703509364567575
-1.795460005037025
-6.708600463302101e-05
3.225236181068179e-05
1.795396040599144
-0.0003778633074810847
-1.795458459740459
-0.0003528367497360276
2.611715220437266e-05
-0.0002935020345281398
-1.795477821917732
-5.07884067679247e-05
1.795424281062687
-0.0002989505605553341
-1.795477085448134
1.996892750000331e-05
-0.0002303580279772177
-1.795487128499833
-3.892937180034641e-05
-0.0002343092383818116
-1.795486858183864
1.551030340285442e-05
-0.0001778932577775271
-1.795491365880117
-3.03048055971914e-05
-0.0001807409970155061
-1.795491357108993
1.22968580412823e-05
-0.0001335796415125971
-1.795492740243091
-2.407369609123261e-05
-0.0001355970804560088
-1.795492873500343
1.002033997143931e-05
-9.530688460043877e-05
-1.795492657014353
-1.965051741237226e-05
-9.668091806855537e-05
-1.795492864295582
8.469853379666172e-06
-6.129139227932975e-05
-1.795492000124998
-1.663330099652713e-05
-6.214556346151312e-05
-1.795492243932713
7.505989701106665e-06
-2.998676160714809e-05
-1.79549131027164
-1.475556282780629e-05
-3.039612260873533e-05
-1.795491570689506
1.795490895601375
2.96192828868983e-05
-1.795513965590615
6.777419887527031e-06
-1.332671352471948e-05
7.044058636950776e-06
-1.385506094674378e-05
-1.795491162240129
1.795170620937662
-1.795171723090851
-0.0001186054118491598
1.795170342613141
-8.960124508037688e-05
1.795170434336175
-6.257349295777765e-05
1.79517060004558
-3.697125776767458e-05
-1.222813856919565e-05
1.333307462019176e-05
1.795197897958369
-1.795199335393161
-5.597621255652985e-05
1.795197142090537
-3.31556372407966e-05
-1.097971332553183e-05
-1.795220930294656
-9.642295887258209e-06
1.795201509560515
-1.795222395729716
1.795187796998411
-0.0002633191621832509
1.795179255024948
-0.0002222412750265507
1.795174300735139
-0.000184539812148739
-0.0001501023279067054
1.795219697538057
-1.795231861415639
1.795211241965061
-0.0001613239721585374
1.795205509961272
-0.0001322467322211196
1.795201733825738
-0.0001051685537396281
-7.985363153917291e-05
1.795234556833838
-1.795242433239009
1.795228889246117
-9.132514444781071e-05
1.795224948797969
-6.965720921494229e-05
1.795222377682627
-4.89935576961642e-05
-2.908461508885903e-05
1.79524711478131
-1.795252132528701
1.795243734086658
1.795241786149772
-2.488486699750257e-05
-8.258042419747159e-06
1.795259621812376
0.0004188389818084559
-1.795158007776703
0.0003233017911377089
-7.172861050412727e-05
-1.795163307347941
0.0004023714001375648
-4.336515324866986e-05
-1.795183524737439
0.0004885501884415697
9.532823294478021e-05
0.0005955273812007885
-1.795520310682623
-0.000470145992235956
1.795621446842343
4.855001195659143e-05
-0.0004994045908499842
-1.795737337079196
0.0006641360035835502
-9.739118786811218e-05
1.795517339442316
5.02868116293183e-05
-0.0005059719855516249
0.000658092046179882
-9.829947325334301e-05
4.925792345989898e-05
-0.0004925431702176297
0.0006276315994357507
1.795623183642018
-0.0005110662651628175
-1.795738303305232
0.0006747256689034985
1.795516310554156
-0.0005181888372845406
0.0006753343714827054
-0.0005041686010302157
0.0006443277369419891
1.795614036064073
3.539074764556946e-05
-0.0003786151335063437
-1.795701229978917
-6.898629108553182e-05
1.795532492783565
3.650107412056514e-05
-0.0003900405562854619
-7.088922397309558e-05
3.613955703695053e-05
-0.0003861401672142385
-7.005481362434249e-05
1.795615146390557
-0.0003872647613917296
-1.795703563714298
1.795532131266484
-0.0003986819413957339
-0.0003943693166290609
1.795601143390652
2.563033620949784e-05
-0.0002878719338379696
-1.795667755107068
-4.976182005184415e-05
1.795536894059882
2.674996397299311e-05
-0.0003005902830430784
-5.195090690545355e-05
2.685362181593818e-05
-0.0003017494810742817
-5.217216588019202e-05
1.795602263018413
-0.0002939237355466204
-1.795669977889478
1.795536997717733
-0.0003066727104486886
-0.000307611110126607
1.795586791753479
1.880136327747085e-05
-0.0002184049427615733
-1.795638505148155
-3.655495993555101e-05
1.795535585997868
1.988643240480314e-05
-0.00023057266848663
-3.869829152653002e-05
2.023924347117607e-05
-0.0002341131732467979
-3.941805319594981e-05
1.795587876822601
-0.0002226056828625626
-1.795640395958493
1.795535938808932
-0.0002348520336674243
-0.0002382961633870621
1.795573061450721
1.40611649178773e-05
-0.0001641107571079133
-1.795614011692056
-2.740510931014956e-05
1.795531590822151
1.505751196617568e-05
-0.0001747885360427538
-2.93710160656106e-05
1.55190745275598e-05
-0.0001791112113607625
-3.029609439053615e-05
1.795574057797772
-0.0001670211972921515
-1.795615582257707
1.795532052384708
-0.0001777912516551794
-0.0001820848154249
1.795561012433449
1.077696656240783e-05
-0.0001206062128498857
-1.795594239156301
-2.105478809010328e-05
1.795526713029716
1.166918819130965e-05
-0.0001293450658401696
-2.281325475537823e-05
1.216360079047187e-05
-0.0001335058846344735
-2.379614086933657e-05
1.795561904655074
-0.000122602171611419
-1.795595546872271
1.795527207442309
-0.000131425815910589
-0.0001355889232556677
1.795551151338607
8.52468715752301e-06
-8.466480538751018e-05
-1.795578927284712
-1.669014855271428e-05
1.795522017879346
9.321228592207555e-06
-9.127346035242567e-05
-1.825937482096455e-05
9.813058741380896e-06
-9.472475254926254e-05
-1.923332555730042e-05
1.795551947880039
-8.599050100341425e-05
-1.795580034304486
1.795522509709503
-9.266654149069467e-05
-9.613115560252089e-05
1.795543694001448
7.028745962938157e-06
-5.383372714362622e-05
-1.79556776814071
-1.378568486558864e-05
1.795518123372887
7.749248251522058e-06
-5.824698340144609e-05
-1.520509649786149e-05
8.226045664316231e-06
-6.068004767891456e-05
-1.614750236407484e-05
1.79554441450373
-5.464329686717661e-05
-1.795568731905092
1.795518600170293
-5.910250931506766e-05
-6.154893869454266e-05
1.795538713995658
6.115211456357644e-06
-2.616217176301205e-05
-1.795560491234948
-1.200952745189211e-05
1.795515377854947
6.783855864368782e-06
-2.83677412866723e-05
-1.33269570607888e-05
7.245571834867555e-06
-1.423875292577988e-05
1.795539382640061
-2.654605063876403e-05
-1.795561363305559
1.795515839570921
-2.877477516349813e-05
-3.003415680917958e-05
1.79553622518732
5.68203492992005e-06
-1.795556902787144
-1.116660674094766e-05
6.324550772630797e-06
-1.243269512585243e-05
1.795536867703156
-1.795557730199349
1.795514418459724
1.422864802254884e-05
1.795175061262672
8.409301785069522e-05
-1.795202778487386
0.0004586063582303806
0.0003870993991146321
-1.795190159528403
0.0004782752185144103
9.736739942815317e-05
-1.795244981546975
0.0005370361755035005
5.034455202999807e-05
-1.795231968582513
0.0005621832276290206
-1.795225088983607
0.0005753824974578862
1.795304232518404
0.0001206811500285117
0.000682255411867061
-1.79538528754474
0.0001081130117851537
0.000603529829705749
1.795291664380162
6.268997923797408e-05
-1.795374413425989
0.0007205989079359654
5.605373712789423e-05
0.0006344647059649723
1.79528502813805
-1.795369005229464
0.0007409939030430344
0.000650792025203415
6.809817576435209e-05
-0.0001315552687763955
-1.795482967270825
0.0007996425370620416
1.795481322053504
-6.974339307828119e-05
-1.795623870514081
0.0008876030853965992
0.0008247137648176306
1.795590351588132
1.3929058537729e-05
2.710311463260964e-06
-5.321907472319322e-06
1.88683246283658e-05
1.795575201489487
3.85625092501623e-06
-7.574476776800402e-06
1.795973326709188
3.362674624256883e-05
-0.0003158810444976228
0.0004461911543021338
-6.127631885926731e-05
1.795856879204287
4.235831990229074e-05
-0.0004071179998039513
0.0005617495999481013
-8.054241585853141e-05
4.75837859225171e-05
-0.0004674066588954417
0.0006315416994635329
-9.217670335508296e-05
1.795982058282846
-0.0003261215880735583
0.0004631995281835335
1.795862104670306
-0.0004192967639831124
0.0005816055950589316
-0.0004802802131724563
0.0006516591895387122
1.795870373121445
2.207111401730799e-05
-0.0002295102389519136
-4.167267385923878e-05
1.795788848287064
2.861556114320175e-05
-0.0002993182102066783
-5.489051758654942e-05
3.30570122564211e-05
-0.0003489498692724327
-6.389549554280767e-05
1.79587691756857
-0.000235704353864797
1.795793289738181
-0.0003070552008104244
-0.0003575011711483
1.795791600423804
1.508155203628132e-05
-0.0001687136139208896
-2.896755597641904e-05
1.795732842939795
1.988498767369552e-05
-0.0002220640671026785
-3.83816471938303e-05
2.340755380691446e-05
-0.0002619507663095036
-4.531882493807871e-05
1.795796403859434
-0.000172676421286699
1.795736365505927
-0.0002271325715927689
-0.0002677083760289634
1.795731398715574
1.060984170347113e-05
-0.0001245366871717645
-2.05349613580097e-05
1.795687833998279
1.416558680489288e-05
-0.0001652005541419743
-2.746438246125633e-05
1.691055294017474e-05
-0.0001966989642951944
-3.283350513366493e-05
1.795734954460684
-0.0001271567866164011
1.795690578964408
-0.0001685912300729117
-0.0002006159051752628
1.795685512802514
7.653269583835575e-06
-9.151962061705501e-05
-1.487638208236525e-05
1.795652290568285
1.033948092421997e-05
-0.0001222019307032686
-2.011586992978289e-05
1.249059926189955e-05
-0.0001465884346529833
-2.432225309861078e-05
1.795688199013853
-9.327673283825748e-05
1.795654441686622
-0.0001244933569719526
-0.0001492659387463098
1.795650890275994
5.670509339141933e-06
-6.608041966115156e-05
-1.105657707967133e-05
1.795624772354149
7.753790127845713e-06
-8.870916834662515e-05
-1.512863058527632e-05
9.469250598409186e-06
-0.0001070369087252204
-1.848757897937109e-05
1.795652973556784
-6.725656488379888e-05
1.795626487814619
-9.025212709583732e-05
-0.0001088550115220244
1.795625355547706