/*--------------------------------*- C++ -*----------------------------------*\
  =========                 |
  \\      /  F ield         | OpenFOAM: The Open Source CFD Toolbox
   \\    /   O peration     | Website:  https://openfoam.org
    \\  /    A nd           | Version:  7
     \\/     M anipulation  |
\*---------------------------------------------------------------------------*/
FoamFile
{
    version     2.0;
    format      ascii;
    class       volScalarField;
    location    "0";
    object      Phi;
}
// * * * * * * * * * * * * * * * * * * * * * * * * * * * * * * * * * * * * * //

dimensions      [0 2 -1 0 0 0 0];

internalField   nonuniform List<scalar> 
12691
(
7.332960711667849
5.999697673891628
4.66643348296461
3.333167968410936
1.99990129835333
0.6666338561271613
8.666194020449199
7.332937118414424
5.999679151832337
4.666419558486925
3.333158277909532
1.999895585489315
0.666631968661196
13.99962861810235
12.66629751742844
11.33298247296928
9.999678280274102
8.666381123522518
7.333088300553116
5.999797972086746
4.666508948103311
3.333220512686028
1.999932282818106
0.6666440941344645
13.99958171101865
12.66625680896273
11.33294761421931
9.999648838802374
8.66635664876557
7.333068365049052
5.999782195980353
4.666497012706035
3.333212167275076
1.999927347562102
0.6666424610460516
13.99989591294164
12.66653040611651
11.33318247945145
9.999847541327208
8.66652200011198
7.333203116147918
5.999888844858405
4.666577688630469
3.333268565032601
1.999960692816066
0.6666534937150819
13.99985880872352
12.66649769578599
11.33315407215236
9.99982324810237
8.666501585420562
7.333186333887621
5.999875462482216
4.666567502641496
3.333261410526978
1.999956449087634
0.6666520873461041
13.99983976492812
12.6664809332007
14.00011993775341
12.66672817219556
11.33335432574973
9.999994478088531
8.666645389870849
7.333304439810413
5.999969537385649
4.666639027989198
3.333311599942621
1.999986197697766
0.6666619422462106
14.00009047352347
12.66670182600994
11.33333114857093
9.999974428079865
8.666628370120973
7.333290326935852
5.999958202319728
4.666630350554562
3.333305478717332
1.999982556434537
0.6666607338030441
14.0000753813307
12.66668834786732
11.33331930515882
9.999964193042157
11.3334994579623
10.00011970084544
8.666751375604989
7.333392055706084
6.000039699784389
4.666692597064343
3.333349306234774
2.000008592984237
0.6666693687287818
14.00028154519282
12.66687215910679
11.33348046406787
10.00010309490847
8.666737147141538
7.333380162005307
6.000030082543047
4.666685194819553
3.333344063325503
2.000005465740722
0.666668329469393
14.00026949890492
12.66686125977894
11.33347077143224
10.00009462792821
8.666729897695172
7.333374105930092
8.666840410647492
7.333466087460664
6.000099270246933
4.666738253863217
3.333381535322827
2.000027771562393
0.6666757345552969
14.00043657942529
12.66701173497057
11.33360391641084
10.00021032580333
8.666828434651329
7.333456002038974
6.00009106420646
4.666731906068775
3.333377022275471
2.000025072866659
0.6666748365803141
14.00042685782089
12.66700283507135
11.33359591558799
10.00020326777499
8.666822338730432
7.333450871098952
6.000086891201178
4.666728679149325
3.333374728648487
6.000148371697772
4.666776009743973
3.333408252236939
2.000043695820907
0.6666810244784568
14.00055960363942
12.66712340000528
11.33370342048908
10.00029733363677
8.666902940754676
7.333518211657702
6.000141295012262
4.666770510555614
3.333404329062631
2.000041344458777
0.6666802411756149
14.00055163006619
12.6671160234896
11.3336967244377
10.00029137424914
8.666897753117732
7.333513815341635
6.000137698909888
4.666767716869733
3.333402336444601
2.00004015034901
0.6666798434133622
3.333429492425197
2.000056372654568
0.6666852384390589
14.00065400101079
12.66720964452446
11.33378073555167
10.00036530533701
8.666961423619185
7.333567242750305
6.000181020236973
4.66680112448349
3.333426028057149
2.000054292084922
0.6666845446435206
14.00064730896535
12.66720339684078
11.33377501596873
10.00036017559071
8.666956927391876
7.33356340955121
6.000177868947312
4.66679866641527
3.333424269456037
2.000053236057476
0.6666841925166282
0.6666883846267894
14.00072246800802
12.66727251274407
11.33383735535715
10.00041529052492
8.667004589437319
7.333603547257797
6.000210512408215
4.66682390070316
3.333442197459487
2.000063950493156
0.6666877565613251
14.00071667216521
12.66726706103641
11.33383232963083
10.00041075445032
8.667000591068884
7.33360012174936
6.00020768463738
4.666821687638971
3.333440610170372
2.000062995738079
0.6666874379357554
14.00076700984359
12.66731355727152
11.33387444142318
10.00044812776302
8.667033021025007
7.333627513649433
6.000230018489615
4.666838987724254
3.333452920311827
2.00007036040023
0.6666898889950125
14.00076178169795
12.66730861275303
11.33386986025058
10.00044397396502
8.667029344675971
7.333624352869045
6.000227401483336
4.666836934698882
3.333451445150202
2.00006947201936
0.6666895923410688
14.00078895158395
12.66733381884155
11.33389278457892
10.00046439807304
8.667047130452522
7.333639423275765
6.000239722641576
4.666846500250881
3.333458263366593
2.000073555828432
0.6666909522854786
14.00078399858485
12.6673291210129
11.33388842034457
10.00046043138503
8.667043612144649
7.333636392724226
6.00023720952322
4.666844526236601
3.333456843629282
2.000072700282773
0.6666906665053021
15.33423620771974
15.33425949188365
15.3342543774052
8.666223268625274
9.999451145573477
15.33298263342097
15.33292936059663
15.33290189933123
15.33328469761811
15.33324327681219
15.33322198199893
15.33350184439496
15.33348523062767
15.33371241420217
15.33369933743664
15.33388145720415
15.33387103493457
15.33401442626914
15.33400597235271
15.33411574190611
15.33410871484349
15.33418883496165
15.33418279707249
15.33423079254704
16.65003583768629
16.65027336886065
16.65050067057443
16.65048676419388
16.65068111842408
16.65067017653125
16.65082176804095
16.65081299317921
16.65092816051741
16.65092093853057
16.65100449372966
16.65099833875761
16.65105377514473
16.65104828766395
16.65107794182003
16.65107277543854
9.99948673635712
11.3327108049994
8.666179053566042
7.332925060115496
5.999669694788819
4.66641245440849
3.333153336772588
12.66595066751402
11.33268887982152
9.999432905948719
1.999892673623947
17.94979187383871
16.64970094320806
17.94972702557913
16.64964153583102
17.94969347793517
16.64961084834647
17.95010655478102
16.6499904846964
17.95008150376481
16.64996712953784
17.95040918022925
17.95039026780869
16.65025544359088
17.95064901001232
17.95063454975447
17.95083724283315
17.95082601123413
17.95098260503308
17.95097370041174
17.95109175717745
17.9510845010692
17.95116963544326
17.95116350210116
17.95121971857587
17.95121428320401
19.25142728403798
17.95124422170595
17.9512391208359
5.99977414765589
4.666490927861337
3.333207914779962
1.999924833575376
0.6666416292974912
3.333257767288091
1.999954288698327
0.6666513714957947
0.666660119069598
12.66623590870303
11.33292974775621
9.999633771205668
8.6663441388264
7.333058186025756
9.999810831562147
8.666491162303108
7.333177773045239
5.999868640978517
4.666562313468685
7.333283134452778
5.999952429111993
4.666625933120185
3.333302363721167
1.999980703903823
4.666681429248403
3.3333413970501
2.000003875712536
0.6666678011185408
2.000023701568118
0.6666743803281537
13.99955758192403
11.33313953500081
8.666619689643563
6.000025188155655
11.33275351181202
12.66597672086925
13.99922389152643
19.24993380629103
21.85034458625952
20.55006698682196
19.24986477550165
21.85030942935431
20.55003057223422
19.24982910597087
21.85075266552508
20.55048043251317
19.25026724808368
21.8507270377423
20.55045400070087
19.25024107805962
21.85106204390974
20.55079914697167
19.25058277541107
21.8510434840111
20.5507797763081
19.25056332968492
21.85129727315971
20.5510447687865
19.25082934444322
21.8512836583794
20.55103036826648
19.25081468843933
21.85147573873705
20.55123317699687
19.25102064571186
21.85146555651418
20.55122227328131
19.25100940776134
21.85160983882034
20.55137600223061
19.25116700314014
21.85160203481007
20.55136755212882
19.25115819501543
21.85170838996638
20.55148169416945
19.25127609501543
21.85170221691705
20.55147494431426
19.25126898900738
21.85177757225312
20.5515562765969
19.25135349760275
21.85177248247155
20.55155066507231
19.25134754081106
21.85182156149198
20.55160387204685
19.25140308118636
21.85181713323541
20.5515989595995
19.25139783439297
21.8518429394289
20.55162705222429
21.85183882485187
20.55162247237718
19.25142237625117
0.6666310067929916
13.99931388139033
12.66602736374167
13.99925450881998
15.33262098477619
15.3325522400347
15.33251669504494
17.9493405945249
16.64929270201157
17.94925320472661
16.6492144132789
17.94920780853474
16.64917382264167
19.24935191789715
20.54947873518793
19.24930260542504
25.75257299367579
24.45231791149129
25.75168660015077
24.45115419115445
23.15070610621342
25.75166224974831
24.45112351788832
23.15067164898913
25.75194471652976
24.45148686013147
23.15108803895808
25.75192873399892
24.45146613851823
23.15106410112162
25.7521322565954
24.4517314424954
23.15137317691831
25.75212133547151
24.45171704302157
23.15135622662073
25.75227011781838
24.45191289805883
23.15158722516354
25.75226243482956
24.45190264022011
23.15157497959072
25.75237188067912
24.45204788864971
23.15174795410027
25.75236633865632
24.45204040143939
23.15173890918356
25.75244666425189
24.45214774370721
23.15186773614042
25.75244255802099
24.45214212889367
23.15186087909688
25.75250066065004
24.45222023077067
23.15195519937944
25.75249751548455
24.45221587675745
23.15194982796513
25.75253805810218
24.45227064557006
23.15201630090674
25.75253553974904
24.4522671177048
23.15201190902352
25.75256161180209
24.45230249358726
23.15205502066211
25.75255947134354
24.45229946548236
23.15205122390495
23.15207380006786
25.75257103103646
24.45231511903372
23.1520702846514
3.332933315453269
1.999763927379222
0.6665886282552689
4.666069000785985
3.332917118906172
1.999754499109011
0.6665855327714232
13.99806517987839
12.66499456726995
11.33190570264182
9.998796512435128
8.665667315354321
7.332519787451789
5.999356331688
4.666179706602892
3.332992817747254
1.999798610179058
0.6666000225812553
13.99794726298006
12.66489991945781
11.33182993671744
9.998736108228037
8.665619495390192
7.332482390808945
5.999327702789317
4.666158604142153
3.332978343973789
1.999790158866633
0.6665972436319176
13.99853140808215
12.66537332913639
11.3322118278715
9.999042440431269
8.66586318480117
7.332673683690997
5.999474569352733
4.666267091442924
3.333052865171883
1.999833713693526
0.6666115718950801
13.99843697602948
12.66529588262585
11.33214869618128
9.998991335473765
8.665822208942322
7.332641302049933
5.999449569494111
4.666248542314907
3.333040080985216
1.999826225160634
0.6666091056389861
13.99894850819285
12.66571896037424
11.33249593620919
9.999273962551563
8.666049793762259
7.332821751184817
5.999589232200071
4.66635235722291
3.333111721522546
1.999868222979829
0.6666229423730363
13.99887346537666
12.66565615024826
11.33244383405892
9.999231154398759
8.666015037529979
7.332793997454597
5.999567623578034
4.666336217896377
3.333100543758042
1.999861654331299
0.6666207756095395
15.33112362626442
15.33097711640532
15.33169424835353
15.33157986459936
15.33219312628472
15.3321043468039
13.99788591935592
12.66485088904823
11.33179082711327
9.998705017901102
13.9983880040261
12.66525586152681
11.33211616973204
9.998965070180452
8.665801191796417
7.332624719999778
11.33241703883277
9.999209184996609
8.66599723138472
7.332779798995896
5.99955658147504
4.666327977920375
15.33090055753344
15.33152030582285
13.9988346619807
12.66562376729041
15.33205828591235
17.9487831020779
16.64879953872441
17.94866438059783
16.64869597212723
17.94860231901126
16.64864203992173
17.9472692758796
16.647518943089
17.94705074951381
16.64733826612353
17.94693554692108
16.64724352279625
17.94809918871686
16.64821061450578
17.94793746547758
16.64807356478933
17.94785224257121
16.64800188108802
22.17356220687627
20.8728040361016
19.24805419130454
8.665594939068855
7.332463222424316
5.9993130497943
5.999436784064051
4.666239065374698
3.333033554165267
3.333094840618932
1.999858304288413
0.6666196707821973
21.8499039421215
20.54963001888277
19.2494471820573
21.84922097429299
20.54897572741503
19.24883204104029
21.84980189975334
20.5495292390243
21.84975808969812
21.84906317809599
20.54882717567403
19.24869850472232
21.52489934910522
20.54875344667071
19.2486287057581
22.33378798055602
20.22142437423858
18.9216284536247
21.35842780127064
21.03343966492439
18.92145133552259
22.17345320926701
20.87268796826128
19.24786648054291
22.17333337541125
20.87310419154549
19.24776509766797
5.999188931498193
4.666056863445124
3.332908840393319
1.999749682850416
0.6665839519528359
4.666147815392287
3.332970950164489
1.999785843862048
0.6665958251477625
1.999822403795998
0.6666078474159174
23.15028910757583
24.77546545218159
22.82473152954609
24.77469168071233
22.82376626311532
25.75132200326503
24.45069516781271
23.15019005354268
25.75128375478304
24.45064826958579
23.15013915768181
26.0761321687584
24.77540554881176
22.8246691962656
26.07610717863735
24.77494374211165
22.82448862751831
26.23643852646622
24.93505869761685
22.65885438792579
26.23617818255476
24.93474354146338
22.65854334647099
26.23817805619282
24.77459446112258
22.823660191046
26.23815939752973
24.9372138215658
22.82352842316422
26.72656480599207
26.56186415856915
26.56344762979933
26.72703084025184
26.72654637427629
26.5616253924429
26.56342910351288
8.664922589050647
7.331947884814218
5.998924867663758
4.665865267235096
3.332778941377572
1.999674408890011
0.66655929360267
9.997733432689515
8.664845964158138
7.331890126921364
5.998881925465422
4.665834319792626
3.332758061130739
1.999662347097825
0.666555348465499
13.99649452897809
12.66377034527099
11.3309495402624
9.99804986554501
8.665086393428624
7.332071955691324
5.999017445970413
4.66593216428965
3.332824162143277
1.999700563013704
0.6665678530874466
13.99628384520824
12.66361214443852
11.33082956178487
9.99795832309602
8.665016471847654
7.332018838901693
5.998977711894246
4.665903394420332
3.332804685037477
1.999689286838815
0.666564160880012
13.9970260754709
12.66417642440976
11.3312615201867
9.998290128441823
8.665271178107195
7.332213061164119
5.999123415657484
4.66600911688272
3.332876366670026
1.99973082667196
0.6665777688706468
13.99684892032426
12.66404062741971
11.33115674278537
9.998209071455076
8.665208571797455
7.332165073750079
5.999087263198673
4.665982797277829
3.332858477581826
1.999720443026899
0.6665743645592096
13.99755809020894
12.6645910351539
11.33158519020042
9.998542749216307
8.665467630894582
7.332364435824256
5.999237916791045
4.666092725778813
13.997412473226
12.66447676589092
11.33149539296857
9.998472243483505
8.665412512260547
7.332321772267703
5.999205523738475
15.32909804891652
15.32881617261129
15.3298042317632
15.3295697848063
15.33048793830043
15.33030176774513
13.99733646718418
15.33020419226501
16.64672852845564
18.27122297765014
16.64649005024082
18.27103439580054
16.64636519855501
18.43004245412148
16.3196091395131
18.27018070496751
18.2699848652902
16.3204148786732
18.26972734216895
16.32033788728448
22.32593462449522
21.02745597857171
18.75504731516202
22.32911868414615
20.05694053217465
18.91985165645554
13.9961731721019
13.99675622580059
12.66396990556108
11.33110243868012
12.66441741463452
11.33144894868388
9.998435899384761
8.665384174943744
15.32866661079552
15.32944749250304
18.42958480088161
16.31936657500384
20.22068549633753
18.92102381525719
21.35797761349644
21.03301037005036
18.92081387206322
22.32504474909162
21.02681040583956
18.75468553975702
22.32375465721687
21.02589254806397
18.75418545759664
22.33062336243672
20.05680809145806
18.91962786365643
22.33051920127398
21.03095420157574
18.75721356626919
22.33332763324239
9.997680985859466
8.664806443111548
12.66352951875245
11.33076724782745
9.997910991524407
8.664980442790787
7.331991539977254
5.998957331142516
9.998167224603947
8.665176347829272
7.332140431809874
5.999068731920799
4.665969324467744
3.332849329218041
7.332299883859736
24.92474621903219
22.65059277345767
24.92950519126038
22.65399532136387
26.22402248271525
24.92329575280256
22.64963263522418
26.22300086761215
24.92108646303743
22.64823302921598
26.23037027439429
24.92914399015537
22.65557943842879
26.23016897086772
24.92804685853133
22.65547052122094
26.23603875811387
24.93457711956345
22.65838276374713
26.23573426721551
24.93421293085725
22.65803178599463
7.331860420907593
5.99885988641081
4.665818461887895
3.33274737386501
1.999656177924178
0.666553331388967
4.665888659285165
3.332794719927531
1.999683521522513
0.6665622737497469
1.999715136255548
0.6665726252585706
26.55010051073974
26.55620371964483
26.56149711261063
26.54911546874741
26.55601337458596
26.56121713949047
21.35870610691817
21.35847752791221
22.33354087610699
22.33496098272668
22.33479362730598
21.52212460126916
21.52200481655446
22.33348383050681
22.33339691653924
21.35834974341025
22.3347539639325
22.3346979010289
21.52192227016985
21.52187890526421
26.23652696617953
25.26045826994645
26.23744869682588
25.26155646927408
24.93516629467489
23.95947951319044
24.93630281522424
23.96067461572047
22.65896129808779
23.63431033211246
22.66014218827957
23.63550826876365
26.23829297670851
26.23769383119219
25.2626586014888
25.26185222194899
25.26035391162666
26.23622748628448
25.26010567533705
26.23725616665211
26.23739151437347
25.26148740434217
25.26132496649895
23.95936775591382
24.93480305256427
23.95910311626411
24.93623092088602
23.96059859692603
24.93606234316689
23.96041882654906
22.65860173660034
23.63419879095286
23.63393496056146
22.66005377084047
22.65987651329931
23.63543124832458
23.6352506868498
25.26004783314398
26.23610249293215
25.25995913871857
26.23722477557047
26.23717676122677
25.26128733883806
25.26122976007107
23.95904171094577
24.93465233276685
23.95894782220082
24.93602329503617
23.96037725795938
24.93596355362148
23.96031427977217
22.65845440430972
23.63387382206552
23.63378046666106
22.65983528673048
22.6597775311509
23.6352087666763
23.63514652643578
26.23752627974693
26.23825940615849
26.23764401963425
25.26261087929413
25.2617915920143
25.26244805492333
25.2616502232271
24.12422728395783
24.93654681400109
23.96093796130917
24.93723845598656
24.12414795609015
24.93640016529312
23.96077806500157
26.23813097802812
26.23749902286216
26.23745739724501
25.26242603263483
25.26239083262329
25.26161744091631
25.26156721517218
24.12409306915693
24.93717568678746
24.12406513904908
24.93636609278323
23.9607415153925
24.93631383294532
23.96068555364731
26.5619451871152
26.56278727667189
26.56355178669819
26.5630102585633
26.56167063622425
26.56261193351216
26.56273522423044
26.5628579922449
26.56352177523361
26.56296501166507
26.56155591390772
26.56258332945277
26.56253957675812
26.56340465686143
26.56283321411311
26.56279538332385
18.42977662074445
18.43119383240554
18.43088056687797
17.78048998465762
17.61894698307734
17.61848107509419
17.61911763628357
22.32829568731158
21.67667730748564
21.35395945991613
20.37823428193033
21.02921156030415
20.05500608787947
18.75606509445718
19.72898886654926
19.73027455190227
22.33125835755393
21.35645545045066
21.35463918360034
21.03155873029289
21.02984684400077
20.05552102080249
18.75645088567225
19.73208453018746
19.73075388453738
22.33344505322173
21.35839450388861
22.33187053135469
21.35698914068389
20.22088304199634
21.03341413976989
20.05736861134823
21.03206591443919
18.43080770887859
18.43071029792855
18.42947532441486
17.45567433160794
17.61882571751594
17.61876355116645
17.7802365148613
21.03331098985549
21.03306410646243
20.05830503882681
20.05724596085313
21.03192569163959
21.0315968724801
20.05697330442282
22.33298585147442
22.33288793353478
21.35789063665745
22.33121507277034
22.33107394206246
21.35641612902131
21.35629386562005
20.05824938024295
21.03292753761962
20.05816233233819
21.03152107142959
20.05690938804613
21.03140507542051
20.05681054610725
22.32430279529844
22.32799355701468
22.32726686472459
21.67558431354375
21.35371105486688
21.67528872724908
21.35311829791611
20.37744993566897
21.02897971795936
20.05481880132878
21.02628001131159
20.37724061182861
21.02842784738948
20.05437614512548
18.75439482935359
18.75592566299296
18.75559397217203
19.72852564723895
19.73010031964954
19.72814961109436
19.72968945402825
22.32343705293905
22.32709593433632
22.32683265100193
21.67466796778362
21.67456047856707
21.35297981511213
21.35276718304217
20.376804729394
21.02566968285074
20.37672975410521
21.02829918949152
20.05427356400186
21.02810183646578
20.0541167213025
18.75551768608457
18.75540702975292
18.75406618581153
19.72787743317572
19.72772184970897
19.72959442263329
19.72944942756916
22.32885036331282
22.32820687023051
22.33107043358422
21.35629224918095
21.3544153760174
21.35590661067432
21.35388256942823
21.03140372908839
21.02963703366477
20.05534940948942
21.03103861739984
20.05650359395203
21.02913872612422
20.05494487787439
18.75726994283321
18.75632104999924
18.75601070296903
19.73195833129578
19.73059356793603
19.73167359762073
19.7302168326973
22.33035947780062
22.32805588776441
22.32782360247263
21.35581728435632
21.35568058848645
21.35375834476859
21.35356777870359
20.05643315359
21.03082504228126
20.05632489447453
21.02902277691368
20.05485125439416
21.02884506292923
20.05470817232105
18.75710806137817
18.75593783562677
18.755840796508
19.73160745072726
19.73150522828371
19.73012974064202
19.72999695154047
21.35828710282472
21.35803401835572
22.33304999654684
22.33130720639847
22.33170353813147
21.35684220855322
21.35649606743667
26.22684329210989
26.23045639374078
25.57545581193931
25.25371454321532
24.27457365754903
24.92836105140342
23.95285869200739
22.65312272676663
23.6247943057154
23.62784380697016
26.23154184695167
26.23402931959051
25.25486700890072
25.25759053728336
23.95391686012103
24.93223857820721
23.95652944565104
22.65624184210257
23.62885987821496
23.63139576792472
26.23614178416199
25.26000614945982
26.23466116363612
25.25830236060569
24.93470101234387
23.95899886557516
24.93296026344203
23.957240934702
22.65850330721064
23.63383145796373
22.65687855555945
23.63209347907972
26.22903629066364
26.22534449436613
26.23004994549948
25.57324181301887
25.25328498549617
25.57260947111445
25.25222304520683
24.27264529875537
24.92793531073449
23.95246697177716
24.92204043477649
24.27210537888647
24.92688607650656
23.95151066391525
22.64882877860906
22.6528018743678
22.6520279692606
23.62361067055641
23.62746831753088
23.62260627590572
23.62655447976109
26.22239163284174
26.22879041981069
26.22840623795763
25.57123427216283
25.5709891948654
25.25196735953789
25.25156916778122
24.27094594576347
24.92052326966678
24.27074162762013
24.92663411444975
23.951282851047
24.92624220552018
23.95092984923774
22.64788712530202
22.65184549383001
22.65156411005758
23.62185422666201
23.62141461999122
23.62633735910966
23.62600134593973
26.23335086734674
26.23120491702582
26.2338318279825
25.25450475477929
25.2573689298769
25.25361426674445
25.2568320992727
23.95357847569393
24.93201423015775
23.956309295158
24.92825853409225
23.95275592367534
24.93147180989427
23.95578022744408
22.65371184870957
22.65303025932475
22.65604608405905
23.62853361117397
23.63118022590664
23.62774272959648
23.63066329034332
26.22985523942738
26.23323653250386
26.23305955589935
25.25340089011128
25.25306935186062
25.2567050585861
25.25650883066718
23.95256069093603
24.92771832337868
23.95225869932602
24.9313436575947
23.95565587215783
24.93114586510528
23.9554644023002
22.65530336874577
22.6528699838894
22.65262314685848
23.62755546042981
23.62726611187948
23.63054199886879
23.63035539902724
25.25988561101175
26.23579206863601
25.2595979696564
26.23409012987899
26.23449437688618
25.25811298119082
25.25765613546906
23.958871417124
24.9342818435391
23.95856884752873
24.93276772286349
23.9570494867575
24.93230405115971
23.95659093479146
22.65809775685125
23.63370467826287
23.63340408995714
22.65629345679759
22.6567053320822
23.63190520816184
23.63145509472782
25.25953076690086
26.23564540905214
25.25942759212263
26.23399442214607
26.23384656429558
25.25754840837292
25.25738229336422
23.95849847829867
24.93410718544633
23.95839070685551
24.93219487510049
23.95648346292089
24.93202664140029
23.95631821434474
22.65793103848016
23.63333426875496
23.63322742416564
22.65619754198965
22.65605050633338
23.6313497672848
23.63118793646794
26.55282606089281
26.55628265386246
26.55730868968509
26.55963844041495
26.56159173730387
26.5602252167625
26.5549360112771
26.55138129611232
26.55589794510752
26.55900697067825
26.55699142736467
26.55945482647937
26.56127032176827
26.55969563903636
26.56007068814544
26.54851887811685
26.55470218854835
26.55433632331367
26.55571642182052
26.5589003656163
26.55873525170957
26.56113535258219
26.55960674074243
26.55946932838628
18.43000976537662
17.78066994078936
18.42965542028827
18.42937126388183
17.78015439942883
17.45580915910993
22.32493186101992
21.67582602575087
21.02673642767625
20.37762720559205
18.75464909471682
19.72847670171907
18.42916609484129
18.42904909354648
17.4553544264035
17.45493720382377
22.32393502848872
22.32310080021818
21.67461426903921
21.6742855629437
21.02602824169522
20.37677382782208
21.02544492783349
20.37654560404843
18.75426304171274
18.75395202659787
19.72797685001612
19.72757038207029
22.32248274020198
22.32212395881919
21.67359389965399
21.67347395130065
21.02501797854577
20.3760697189202
21.02477209098078
20.37598777486746
18.75372773481101
18.75359980904104
19.72727576532828
19.72710717754935
26.22506509966366
25.57367186395632
24.92305888895608
24.27304140902734
22.64950732721463
23.62344139263492
26.22159046256903
26.22322584121527
25.57099372117217
25.57022156953259
24.9213376658618
24.27078632712119
24.91983634393451
24.2701508346534
22.64842526481709
22.64751561281999
23.62208021592675
23.6209188539568
26.22030158733467
26.21952701569485
25.56853301180325
25.56822984275186
24.91868888683262
24.26878048255084
24.91800883551355
24.2685381546059
22.64683934677381
22.64644589264735
23.62004565438301
23.61953382975445
26.55110368703034
26.54770641340894
26.5493155530594
26.46592795712199
26.46495399243939
22.33389228950025
21.35880031897258
22.17237812258054
21.52227595698439
20.22158617705269
20.8715503933168
20.87221845382919
20.22220878720491
22.17302066294215
21.52288887831838
21.52342183646903
22.0090762441266
22.00874327117807
22.33369389178734
22.33421231077733
22.00915946896675
22.33412905006389
22.00865089361108
20.87137270266741
20.87123387951574
20.2213020369684
20.87207585305467
20.22207630767083
20.87196472437317
20.22197230153863
18.92152281896444
19.57151363001984
19.57139882513503
18.92226692114285
18.92217746637634
19.57211714888897
19.57201716287055
21.68382154507997
21.68342756378245
21.35838929190216
21.35885221205616
21.68385893185476
21.35881337971102
21.68338697526674
20.22121538112469
21.0333688014116
20.22116936183392
20.87189311081551
20.22190191755658
20.87185168628018
20.22186441051083
18.92141304341607
19.57131906269261
19.57127763866796
18.92211991743239
18.92208826056669
19.57195221535554
19.57191701944322
22.17338492877365
22.17289632422675
22.17279774629223
21.52276661078969
21.52331973741107
21.52324932218921
21.522672039935
22.17330887173338
22.17273043831048
22.17269873787074
21.5231927626237
21.52316659903044
21.52260631948836
21.52257308049172
26.07621319722763
26.07593688796328
25.42581617468476
25.425506388302
24.1251536971423
24.77511560033827
24.12477700903924
24.12432910669494
24.93661056244491
23.96100505559932
22.82321283214887
23.47401965704213
23.47346169574914
26.07583102879655
26.07617217631486
26.07587798854017
25.42575816719986
25.42543538587589
25.42538084239939
25.4257109389436
24.12509082236806
24.77504041453421
24.12469673068219
24.77498556275484
24.12463377003144
24.77535685994641
24.12503448476039
26.07609199978952
26.07579914339367
26.07578262200991
25.42534436484581
25.42532561042331
25.42568756636418
25.42567284300184
24.12459074072732
24.774922540162
24.12456872016092
24.77532693642505
24.12500193957572
24.77531018079296
24.12498374468981
25.9113508830912
25.91104422271479
26.2363584974652
26.2367934524717
25.91142481124563
26.2367246187155
25.91095848484838
24.61015197249906
24.60979648790976
24.93496157492741
24.93549121347619
24.61023839848421
24.9354067689111
24.60969738234834
22.98429803716573
22.6587581590648
22.98394388334367
22.65928790610203
22.65920255944297
22.98438502876694
22.9838457446345
25.91115039292621
25.91076546689228
26.2361406011357
26.23656994623884
25.91118489231955
26.23653778115137
25.9107252641048
24.60991849036976
24.60947511288868
24.93469823251311
24.93521765744227
24.60995857038778
24.93517843163703
24.60942896591375
22.98406456704264
22.65849910749912
22.98362665733416
22.65901208786551
22.65897318783891
22.98410408354538
22.98358152144431
25.91273690366017
26.23798380527256
26.2382013993428
25.91291880510826
25.91294455447668
25.91270884998584
26.23800969979349
22.82358214809991
22.82308139115616
22.82297910032138
23.47391984548764
23.63577092901572
23.47383762533232
23.63561313744444
25.91266899173741
26.23814423748593
26.23796276743821
25.91289935446693
25.91288364802108
25.91268626981085
26.23794665979941
24.61172200081704
24.61207368629534
24.93719388958738
24.93695566954735
24.61204017688951
24.61174327721435
24.93693529272596
22.82350658573804
22.82290794347039
22.66014585610182
23.47378183338595
23.47375425751457
23.63557569842727
23.63552043963522
26.72663280822544
26.72640707101003
26.72632187808686
26.72659183027698
26.72635896512908
26.88755419113411
26.56179079991329
26.88731931302529
26.56218923606397
26.56212628578454
26.88761049919052
26.88725355531323
26.88859785197139
26.56327332232981
26.88873584381152
26.56346897063835
26.56329671914056
26.88875196283528
26.88857779980289
26.72653562414644
26.72629603848019
26.72628321836543
26.88740114893842
26.56159089790372
26.88710519177964
26.56198474115864
26.56195529161911
26.88742751560826