/*--------------------------------*- C++ -*----------------------------------*\
  =========                 |
  \\      /  F ield         | OpenFOAM: The Open Source CFD Toolbox
   \\    /   O peration     | Website:  https://openfoam.org
    \\  /    A nd           | Version:  7
     \\/     M anipulation  |
\*---------------------------------------------------------------------------*/
FoamFile
{
    version     2.0;
    format      ascii;
    class       volVectorField;
    location    "0";
    object      U;
}
// * * * * * * * * * * * * * * * * * * * * * * * * * * * * * * * * * * * * * //

dimensions      [0 1 -1 0 0 0 0];

internalField   nonuniform List<vector> 
12691
(
(0.9999470980251142 2.220039983931841e-05 -9.650925404042305e-05)
(0.9999477107637139 1.744502333353882e-05 -7.557823482922237e-05)
(0.9999486395552628 1.312447238516013e-05 -5.669669807356864e-05)
(0.9999495692292296 9.138728136674925e-06 -3.938990402007e-05)
(0.9999502921064164 5.389509678555753e-06 -2.319407937339461e-05)
(0.9999506829301796 1.780950613730177e-06 -7.658396380463781e-06)
(0.9999427601846443 1.700579201374077e-05 -0.0001236868266809975)
(0.9999430757313233 1.371213552192205e-05 -9.933999109311753e-05)
(0.9999440849728143 1.076119339098137e-05 -7.769000773602735e-05)
(0.9999453277210512 8.087906200047467e-06 -5.821881039361008e-05)
(0.9999464898741042 5.627553210602294e-06 -4.041541134015323e-05)
(0.9999473659681269 3.317203610268848e-06 -2.378548011973382e-05)
(0.99994783280644 1.095897757541494e-06 -7.85162356342534e-06)
(1.000006918497204 4.387449386366625e-05 -0.0002107355616796558)
(0.9999923044248994 3.814521087769507e-05 -0.0001821360322705991)
(0.9999822139328727 3.271578108684393e-05 -0.0001553158694481777)
(0.9999755060425352 2.766975504157207e-05 -0.0001306362822745467)
(0.9999712423953695 2.302915577657449e-05 -0.0001081614003623477)
(0.9999686817884166 1.877665375064523e-05 -8.776713933571305e-05)
(0.9999672571686788 1.487111701839844e-05 -6.921707417406716e-05)
(0.999966547275269 1.125792635653505e-05 -5.221239626062827e-05)
(0.9999662494819542 7.87544171136618e-06 -3.642291474170408e-05)
(0.9999661569568331 4.658785532386598e-06 -2.15048916830511e-05)
(0.9999661413572093 1.541843418658542e-06 -7.110161146239671e-06)
(1.000002206862715 2.732160704464662e-05 -0.0002187982409371051)
(0.9999877862997507 2.369566361927322e-05 -0.0001886288491675611)
(0.9999779888101312 2.027892810213765e-05 -0.0001604932795196026)
(0.9999716120451515 1.711887247488533e-05 -0.0001347267776997311)
(0.9999676776574975 1.422488312538968e-05 -0.0001113597310113789)
(0.9999654197944567 1.158251052433172e-05 -9.023318856615405e-05)
(0.9999642571286298 9.163242635852193e-06 -7.107799392058181e-05)
(0.9999637607644798 6.930862294867272e-06 -5.356598700011762e-05)
(0.9999636244289744 4.845348486506455e-06 -3.734112010727544e-05)
(0.999963639835885 2.865093354726342e-06 -2.203682007820718e-05)
(0.999963678228056 9.480142246124665e-07 -7.284351432238578e-06)
(1.000032859313102 3.477908119829389e-05 -0.0001778915977974918)
(1.00001753755882 3.070538542240711e-05 -0.0001559267260317145)
(1.000006074295987 2.670106980608691e-05 -0.0001346363515416473)
(0.9999976797522993 2.286045768720242e-05 -0.0001144854155705121)
(0.9999916594422348 1.922983728743504e-05 -9.568264336256812e-05)
(0.9999874332200944 1.582156986345685e-05 -7.82573172971506e-05)
(0.9999845353190414 1.262506954907407e-05 -6.211847029502674e-05)
(0.9999826049346747 9.614842221198813e-06 -4.709788972184233e-05)
(0.9999813734303993 6.756094675925933e-06 -3.297986876773546e-05)
(0.9999806517440692 4.008491347608867e-06 -1.952090470706259e-05)
(0.9999803199491869 1.328590147263425e-06 -6.462247351188729e-06)
(1.00002959288482 2.159538981542789e-05 -0.0001842071138160987)
(1.000014276214181 1.902804454112937e-05 -0.0001611268619200042)
(1.00000291788136 1.651709640039651e-05 -0.0001388658859333364)
(0.9999946825244239 1.4119140409852e-05 -0.0001178857728844324)
(0.9999888428305335 1.186069572264529e-05 -9.838187005984712e-05)
(0.9999847961018821 9.747347183409604e-06 -8.03655107387699e-05)
(0.9999820617172938 7.770723032845493e-06 -6.372643322243939e-05)
(0.9999802694832154 5.913523764930665e-06 -4.827749688173184e-05)
(0.9999791450827019 4.152978660355739e-06 -3.378517736984633e-05)
(0.9999784961928259 2.463122213127622e-06 -1.998941932991921e-05)
(0.9999782011626474 8.162381873718757e-07 -6.615998222704619e-06)
(1.000027893299338 7.327382088814207e-06 -0.0001874790955164216)
(1.00001258622274 6.44933596607851e-06 -0.000163814180174856)
(1.00005227383771 2.767058031423869e-05 -0.0001481559166035964)
(1.000037104501379 2.477177373033826e-05 -0.0001314642262617621)
(1.000025135290135 2.181563565823906e-05 -0.0001147680815144866)
(1.000015850954578 1.889025558640008e-05 -9.854051522198156e-05)
(1.000008764354295 1.604866354810793e-05 -8.304974746703365e-05)
(1.000003444681951 1.331710454807091e-05 -6.840915037135739e-05)
(0.9999995294329534 1.070221492033445e-05 -5.461988699791753e-05)
(0.999996726541136 8.196788405184405e-06 -4.160477778318365e-05)
(0.9999948113592907 5.784180558808862e-06 -2.923388354391688e-05)
(0.9999936216361576 3.441563596434465e-06 -1.734316433246108e-05)
(0.9999930524789894 1.142299338540331e-06 -5.747849786605846e-06)
(1.000050006894389 1.713708565935748e-05 -0.0001530597561285539)
(1.0000347468572 1.531704932667213e-05 -0.0001355815471833917)
(1.000022774223774 1.346945804449831e-05 -0.0001181763832012806)
(1.000013541918734 1.164809476106278e-05 -0.0001013238435900374)
(1.000006537929006 9.884702806444649e-06 -8.528958862907008e-05)
(1.000001312925468 8.194368320856531e-06 -7.01791460606095e-05)
(0.9999974911429818 6.580105252604914e-06 -5.598312547436972e-05)
(0.9999947713508979 5.036488084941915e-06 -4.261268515971815e-05)
(0.9999929227950098 3.552392870083089e-06 -2.992601326028776e-05)
(0.9999917793428588 2.112997670333762e-06 -1.774740887801748e-05)
(0.9999912338390952 7.012217699869069e-07 -5.880768776976656e-06)
(1.000048831035134 5.806782048166572e-06 -0.0001555933364262901)
(1.000033528564457 5.185606769929419e-06 -0.0001377044507412123)
(1.000021558059434 4.556473841129609e-06 -0.0001199304320689499)
(1.000012355818221 3.937520973273796e-06 -0.0001027538566789961)
(1.00004017385385 1.790134647690346e-05 -9.605286655158599e-05)
(1.000030530883991 1.566312387458914e-05 -8.316924168054243e-05)
(1.000022866927258 1.342993989422873e-05 -7.061097085087288e-05)
(1.000016878432723 1.123287326726577e-05 -5.852759750436258e-05)
(1.000012296990651 9.087377306810549e-06 -4.697224287735365e-05)
(1.000008897581109 6.997166616290544e-06 -3.592660955705156e-05)
(1.000006501530045 4.957454024944906e-06 -2.532143076525061e-05)
(1.000004976564747 2.957555179484603e-06 -1.505260615832261e-05)
(1.000004235642382 9.829635951521652e-07 -4.993767085595998e-06)
(1.000065095660769 1.369483395994586e-05 -0.0001253142058303735)
(1.000050405421856 1.239923465570284e-05 -0.000112208416781506)
(1.000038399074367 1.103328079284393e-05 -9.876076962157794e-05)
(1.000028743847375 9.643429704499675e-06 -8.541124470557515e-05)
(1.000021099838688 8.26073454782945e-06 -7.243715754120789e-05)
(1.000015149224435 6.903759998149028e-06 -5.998581320050968e-05)
(1.000010612694656 5.581395670374838e-06 -4.810516588661647e-05)
(1.00000725720658 4.295313824815451e-06 -3.677009997122812e-05)
(1.000004898404565 3.041994106737737e-06 -2.590370208358072e-05)
(1.000003400196041 1.814335268294617e-06 -1.539388059459218e-05)
(1.000002673203795 6.029270184819195e-07 -5.106177977045976e-06)
(1.000064279121639 4.634681702828047e-06 -0.0001272587292071818)
(1.000049522802253 4.193321188490582e-06 -0.0001138660566304689)
(1.000037486944023 3.728964594348465e-06 -0.0001001520519445219)
(1.000027827651402 3.25732523351755e-06 -8.656154119644455e-05)
(1.000020195749295 2.788839163855348e-06 -7.337294524700467e-05)
(1.000014266077317 2.329683365473756e-06 -6.07322339559492e-05)
(1.000034286057192 1.131442891351424e-05 -5.857039965618034e-05)
(1.000027927650209 9.532970669833978e-06 -4.88084537427683e-05)
(1.000022937599042 7.75971342878944e-06 -3.934672725840611e-05)
(1.000019150596538 6.004503082366161e-06 -3.020114262341535e-05)
(1.000016430862811 4.270026985584004e-06 -2.13425180264743e-05)
(1.000014675287826 2.553792280944569e-06 -1.270964776257608e-05)
(1.000013814794132 8.498285499730438e-07 -4.220185229747382e-06)
(1.000076145837593 1.106390316218589e-05 -0.0001006763341107795)
(1.000062248630417 1.013422847707678e-05 -9.096653221018521e-05)
(1.000050528437709 9.115012022705456e-06 -8.072560078295667e-05)
(1.000040805659818 8.044553150701102e-06 -7.032781542101107e-05)
(1.000032871411637 6.950737330323182e-06 -6.002872199701517e-05)
(1.000026513916824 5.852446816718414e-06 -4.998349483283836e-05)
(1.000021535988826 4.761171443928674e-06 -4.026658368252451e-05)
(1.000017765724123 3.682582264797095e-06 -3.089018029803017e-05)
(1.000015062450793 2.61795167190528e-06 -2.18203530969496e-05)
(1.000013319635684 1.565382414835455e-06 -1.299057033046563e-05)
(1.000012466042611 5.208565949159084e-07 -4.312859150555057e-06)
(1.000075574948713 3.740118120589247e-06 -0.0001021509377020704)
(1.000061603337336 3.423955864627516e-06 -9.224203317119511e-05)
(1.000049837736133 3.078009844131096e-06 -8.181057094412232e-05)
(1.000040091321586 2.715245366499786e-06 -7.123573688953654e-05)
(1.000032148753516 2.345063803638181e-06 -6.077523920584965e-05)
(1.00002579282347 1.973795907727908e-06 -5.058444210990753e-05)
(1.000020821981105 1.605259357703869e-06 -4.073665239339285e-05)
(1.00001706095726 1.241300166069673e-06 -3.12420697909538e-05)
(1.000014366592957 8.822783449804042e-07 -2.206426352624471e-05)
(1.000031568848596 6.696463007921239e-06 -3.184591546032325e-05)
(1.000027544797814 5.205125797242791e-06 -2.451643808811826e-05)
(1.00002461772115 3.714138716833866e-06 -1.736377844148113e-05)
(1.000022710409429 2.22637670446052e-06 -1.035556785630075e-05)
(1.000021770112266 7.417168535603653e-07 -3.441061360816392e-06)
(1.00008413484895 9.083241775019553e-06 -7.872160854260041e-05)
(1.000071068681375 8.406735664566656e-06 -7.165690744411676e-05)
(1.000059774888184 7.634301558509748e-06 -6.402072340542617e-05)
(1.000050179900402 6.796892863663274e-06 -5.611327943170947e-05)
(1.000042170742155 5.918597298133956e-06 -4.815117801661491e-05)
(1.000035617153404 5.017178949111889e-06 -4.027680927365702e-05)
(1.000030387913281 4.104918419982232e-06 -3.257028691135563e-05)
(1.000026362231115 3.189567016871113e-06 -2.506183981138967e-05)
(1.000023437286317 2.275304747864162e-06 -1.774347267651935e-05)
(1.000021532957628 1.363643037247383e-06 -1.05793721293635e-05)
(1.000020594612898 4.542558097340069e-07 -3.514988402329396e-06)
(1.000083730823665 3.067462928491004e-06 -7.981851781883145e-05)
(1.000070589610681 2.837765005590076e-06 -7.261719238414941e-05)
(1.000059243465172 2.575963665684534e-06 -6.484668957780672e-05)
(1.000049614244989 2.292537453700976e-06 -5.681145052369085e-05)
(1.000041584590316 1.995617346947244e-06 -4.873037741812665e-05)
(1.000035020327944 1.69117813119091e-06 -4.074668099058741e-05)
(1.000029786926963 1.383329792565122e-06 -3.294021842805159e-05)
(1.000025760924483 1.074646012936044e-06 -2.534021697859416e-05)
(1.000022837445271 7.664914745322928e-07 -1.793718894160487e-05)
(1.000020934886714 4.593295418565804e-07 -1.069352200608327e-05)
(1.000019997660891 1.530037628588637e-07 -3.552688927840684e-06)
(1.000031097478409 3.281560412898953e-06 -1.342319800440738e-05)
(1.000029095244803 1.971000103978882e-06 -8.014964175161235e-06)
(1.00002810416011 6.572943721147521e-07 -2.664881288987834e-06)
(1.00008978651812 7.629771104159164e-06 -5.8968133457208e-05)
(1.000077474547168 7.125590145377725e-06 -5.398909508048944e-05)
(1.000066627195294 6.525367306360234e-06 -4.849365912905353e-05)
(1.000057241974684 5.854138671490733e-06 -4.270852846350817e-05)
(1.000049273470015 5.132490701683869e-06 -3.680383337013345e-05)
(1.000042651268326 4.376624456893157e-06 -3.089737244952509e-05)
(1.000037294350055 3.598725068081558e-06 -2.506147095003782e-05)
(1.000033122067437 2.807505787768936e-06 -1.933091548909923e-05)
(1.000030062149464 2.008834290854776e-06 -1.37109712768038e-05)
(1.00002805628011 1.206383501146494e-06 -8.184943483242106e-06)
(1.000027063773161 4.022778606586969e-07 -2.721087929563605e-06)
(1.000089494251013 2.574326967183519e-06 -5.975662205982326e-05)
(1.000077109873728 2.403395980565504e-06 -5.468600832502776e-05)
(1.000066207968774 2.200236650115312e-06 -4.909843199186257e-05)
(1.000056783216324 1.973321019140596e-06 -4.322386594312631e-05)
(1.000048787264818 1.729600543914203e-06 -3.723443058955264e-05)
(1.000042146916709 1.474531902222584e-06 -3.124887176122288e-05)
(1.000036778675974 1.212206062252263e-06 -2.533965995442881e-05)
(1.000032599809228 9.455356208110506e-07 -1.954114058489213e-05)
(1.000029536384179 6.764690824742231e-07 -1.385772829898486e-05)
(1.000027528852283 4.062126832835225e-07 -8.271606385726782e-06)
(1.000026535715284 1.354491515789884e-07 -2.749740866509778e-06)
(1.000032831380783 5.952770806623615e-07 -1.895612770796333e-06)
(1.000093620831592 6.612569834317316e-06 -4.091699118460924e-05)
(1.000081917244073 6.221626960783585e-06 -3.762358083183927e-05)
(1.00007145833218 5.736940484461776e-06 -3.392798796062986e-05)
(1.000062287219938 5.179198969144575e-06 -2.998743011009863e-05)
(1.00005440372517 4.566207486341389e-06 -2.59231986587042e-05)
(1.000047778885911 3.91270249950328e-06 -2.182222209986136e-05)
(1.000042367457989 3.230447739631839e-06 -1.7740746645062e-05)
(1.000038118105776 2.528520380475723e-06 -1.370910441449269e-05)
(1.000034981328753 1.813715791003055e-06 -9.73685083176356e-06)
(1.000032915336809 1.091019443731343e-06 -5.817838301242354e-06)
(1.000031890145433 3.641119361665779e-07 -1.935023817305956e-06)
(1.000093401013534 2.229468678654883e-06 -4.144702387414279e-05)
(1.000081628450395 2.097109365322835e-06 -3.8095416500575e-05)
(1.000071114969782 1.933252212384966e-06 -3.434017101395961e-05)
(1.000061901960726 1.744894334343384e-06 -3.034079069703278e-05)
(1.000053987262862 1.538047558854013e-06 -2.622005113977297e-05)
(1.000047339911817 1.31767807903948e-06 -2.206568404482469e-05)
(1.000041912791395 1.087741233211725e-06 -1.793419407775525e-05)
(1.000037652925126 8.512804524627304e-07 -1.385575785823519e-05)
(1.000034509462834 6.105656796248312e-07 -9.839475473624969e-06)
(1.000032439587984 3.672541407301393e-07 -5.878537927481173e-06)
(1.000031412627687 1.225616317788367e-07 -1.955108854352961e-06)
(1.000095993918083 5.967885694733522e-06 -2.407163956099705e-05)
(1.00008471315765 5.645362206937158e-06 -2.21970352962387e-05)
(1.000074536065684 5.23159178254267e-06 -2.006920098646227e-05)
(1.000065532649318 4.744440378831874e-06 -1.778031914906437e-05)
(1.000057730292597 4.19981986524806e-06 -1.540278136676819e-05)
(1.000051125950769 3.611382456930955e-06 -1.298959271324771e-05)
(1.000045697221943 2.990469139904766e-06 -1.057611897443321e-05)
(1.000041411816673 2.346247636439676e-06 -8.182594864757651e-06)
(1.00003823524651 1.685983180663898e-06 -5.816966366026052e-06)
(1.000036136743804 1.015396699147704e-06 -3.477793809229492e-06)
(1.000035093523215 3.390768928338838e-07 -1.157072537073054e-06)
(1.000095817422753 2.01102074882895e-06 -2.437680710928241e-05)
(1.000084470542764 1.901946868814476e-06 -2.246999148875898e-05)
(1.000074239545501 1.762195155877296e-06 -2.030870670172268e-05)
(1.00006519334048 1.597805010139261e-06 -1.798647636061736e-05)
(1.000057357910993 1.414147951222485e-06 -1.557659639708026e-05)
(1.000050728697237 1.215825595236648e-06 -1.313259434788409e-05)
(1.000045281813811 1.006653780539969e-06 -1.069004487443974e-05)
(1.000040983624925 7.897106766215649e-07 -8.269147420147582e-06)
(1.000037798504821 5.674293581100534e-07 -5.877631670584689e-06)
(1.000035694803424 3.41719918356468e-07 -3.513714457853844e-06)
(1.00003464913516 1.141091946622221e-07 -1.168964837177146e-06)
(1.000097127390786 5.655326747187915e-06 -7.944423233491582e-06)
(1.000086062626883 5.364996877249547e-06 -7.336085700715699e-06)
(1.00007603278819 4.984926187570321e-06 -6.641487422333906e-06)
(1.0000671202974 4.53159750827385e-06 -5.890974316563179e-06)
(1.000059365548978 4.019970697758312e-06 -5.108585825395128e-06)
(1.000052777929103 3.463129215247965e-06 -4.312106086047982e-06)
(1.000047346134333 2.872164898260297e-06 -3.513572261855262e-06)
(1.000043047228121 2.256248599826126e-06 -2.720052744581009e-06)
(1.000039854158417 1.622838284661491e-06 -1.934554311872495e-06)
(1.000037741655418 9.779823930806193e-07 -1.156965386070267e-06)
(1.000036690542718 3.266858495119781e-07 -3.849844778493007e-07)
(1.000096971147115 1.905145780588163e-06 -8.044045255917901e-06)
(1.000085841840104 1.807022762158859e-06 -7.425404436712818e-06)
(1.000075758610451 1.67872083570815e-06 -6.720034030776689e-06)
(1.000066803074972 1.525810114726346e-06 -5.958721036591921e-06)
(1.000059014497803 1.353339946728734e-06 -5.165807625252284e-06)
(1.000052400983036 1.16572042984059e-06 -4.359257909257757e-06)
(1.000046949932856 9.666845512798935e-07 -3.551186854577867e-06)
(1.00004263721023 7.593133173711813e-07 -2.74866020995731e-06)
(1.000039434732688 5.461068999082066e-07 -1.954621732146029e-06)
(1.00003731642149 3.290880083150132e-07 -1.168853994234411e-06)
(1.000036262545526 1.099260220694199e-07 -3.889215314491e-07)
(1.000108253288996 6.17996597013214e-06 -2.558267865484596e-05)
(1.000109091828736 5.838548108977059e-06 -8.430473137024745e-06)
(1.000109011563963 1.967214078147571e-06 -8.539345199421212e-06)
(0.9999472592584763 2.74895714657081e-05 -0.0001199642235447426)
(0.9999437942063257 2.070400322855775e-05 -0.0001512305599292972)
(1.000027367056038 4.972893313647619e-05 -0.0002403098220757964)
(1.000022650326322 3.105157297800139e-05 -0.0002502029711583126)
(1.000020175615765 1.056684368570465e-05 -0.0002553625178224529)
(1.00005287276058 3.876321344652712e-05 -0.0001997180892784703)
(1.000049760805735 2.412139199277459e-05 -0.0002072786166391841)
(1.000048134264433 8.193746130016876e-06 -0.0002112061590567501)
(1.000069083494159 1.884812889169837e-05 -0.0001698600894793354)
(1.000068014864798 6.392310316239044e-06 -0.0001728355895164659)
(1.000082749184428 1.485573058389777e-05 -0.0001374460171174809)
(1.000082047711641 5.031174190095721e-06 -0.0001396877662924903)
(1.000092333427804 1.185450731025951e-05 -0.0001093491966609604)
(1.00009187335308 4.009674567115109e-06 -0.0001110229868518929)
(1.000098979412149 9.626021956078688e-06 -8.482721967760779e-05)
(1.000098677405485 3.252231112967316e-06 -8.605651874527572e-05)
(1.000103501675479 8.00883281099253e-06 -6.314797487173309e-05)
(1.000103302022181 2.703171591813934e-06 -6.402274337065792e-05)
(1.000106466886602 6.886765241530251e-06 -4.361693251984927e-05)
(1.000106331657362 2.322538203293633e-06 -4.420054783618516e-05)
(1.000108155695081 2.082919422212193e-06 -2.59170170155634e-05)
(1.000077961820489 4.237193036106062e-05 -0.0002198942327590974)
(1.000092054559118 2.031790221385302e-05 -0.0001847224730833004)
(1.000103226935877 1.578676095340938e-05 -0.0001476334626220479)
(1.000102698862469 5.350298053721187e-06 -0.0001501619266877958)
(1.000110552110375 1.243824963690811e-05 -0.0001162594275318423)
(1.000110243359634 4.209523135867273e-06 -0.000118117391240828)
(1.000115281307591 9.986786605585707e-06 -8.944627517344995e-05)
(1.000115109522088 3.375639655215996e-06 -9.079313768270452e-05)
(1.000118270632056 8.227948549732778e-06 -6.615930108280471e-05)
(1.000118183486582 2.778096209263262e-06 -6.710788183360903e-05)
(1.000120095322686 7.018278073996566e-06 -4.548115816753246e-05)
(1.000120059180035 2.367515669487307e-06 -4.61091689831522e-05)
(1.00012112848203 6.261041894759859e-06 -2.659327410034399e-05)
(1.000121121065163 2.11067127378539e-06 -2.695121206211478e-05)
(1.000121593018625 5.896625427347994e-06 -8.75000312468772e-06)
(1.000121598505315 1.987115831244618e-06 -8.86626321499997e-06)
(0.9999488411950311 3.340422534849944e-05 -0.0001463908995404425)
(0.9999470907359114 2.485845788468727e-05 -0.0001824031615185522)
(0.9999404421874621 5.756725469123127e-06 -0.0001256044185380849)
(0.999941009541457 4.637805403682137e-06 -0.0001007953039159489)
(0.9999422271401256 3.637218127993543e-06 -7.877396203157985e-05)
(0.9999436342560877 2.73220325983148e-06 -5.899911655637648e-05)
(0.9999449177942047 1.900318178504454e-06 -4.094064450966926e-05)
(0.9999506293893401 1.002320537644456e-05 -0.000221637408014049)
(0.9999441605869841 8.434212275472385e-06 -0.000185635989522059)
(0.9999411848458061 7.015917867198253e-06 -0.0001537294894887371)
(0.9999458737423496 1.119868760896168e-06 -2.408819010873203e-05)
(1.000089562724217 6.026790917487995e-05 -0.0002949195743280322)
(1.000054584631033 5.533578015795668e-05 -0.0002690663649842775)
(1.000085861411783 3.784457828492071e-05 -0.0003089715714261013)
(1.000050162406928 3.465186984378956e-05 -0.0002809913752995752)
(1.000083945240154 1.290865009035237e-05 -0.0003163379281291293)
(1.000047837199103 1.18084788439395e-05 -0.000287231807235549)
(1.000106447456649 2.831943723276126e-05 -0.0002469870284921776)
(1.000075227612724 2.64262109426099e-05 -0.0002287671314167338)
(1.000105364816069 9.63873156252561e-06 -0.0002522859886891868)
(1.000073792950173 8.9865241219805e-06 -0.0002333879333219175)
(1.000119002519394 2.141932013821575e-05 -0.0001964062044354515)
(1.000118417728479 7.276456450169144e-06 -0.0002002407893598874)
(1.000091176846821 6.896870650041202e-06 -0.0001881435823599195)
(1.000126413026456 1.640403561398493e-05 -0.0001549881841711329)
(1.000126124709787 5.563233492834508e-06 -0.0001577691712811294)
(1.000130587418379 1.276017624691067e-05 -0.0001207844040680846)
(1.000130473550035 4.320856585441818e-06 -0.0001227959276296094)
(1.000132782730455 1.012972993102007e-05 -9.215174535074116e-05)
(1.000132769937006 3.425458449563996e-06 -9.359114717818842e-05)
(1.000133820960778 8.263766645572231e-06 -6.771790713608426e-05)
(1.000133865568005 2.791133590234627e-06 -6.872130134272837e-05)
(1.00013423225888 6.99159472037344e-06 -4.633085114991044e-05)
(1.000134308482096 2.359111812095387e-06 -4.699008329701958e-05)
(1.000134348477553 6.200167149962516e-06 -2.700537097233073e-05)
(1.000134441049624 2.090545666244714e-06 -2.737919706220371e-05)
(1.000147242507054 5.599294451686697e-06 -8.763101445827888e-06)
(1.00013436239152 5.82070969859001e-06 -8.871822960694705e-06)
(1.000134461851011 1.96183584829239e-06 -8.9929356830578e-06)
(0.9999627218116558 3.095656287517457e-06 -7.203224109724828e-05)
(0.9999623373284739 2.340377067465789e-06 -5.425931489803184e-05)
(0.9999622853572376 1.635582660595191e-06 -3.781104871535865e-05)
(0.9999623570559276 9.66911652175874e-07 -2.23089062396344e-05)
(0.9999624235773218 3.198994731579802e-07 -7.373426879555716e-06)
(0.9999780092888865 1.401325950416444e-06 -3.419703043482124e-05)
(0.9999773984221082 8.309563140568576e-07 -2.022891202367272e-05)
(0.9999771225727937 2.753377603888823e-07 -6.694572661940603e-06)
(0.999990308615032 2.364541199552614e-07 -5.948656507686194e-06)
(0.9999854378129319 8.04117065223665e-06 -0.0001919927486270486)
(0.9999758015615074 6.873428867312824e-06 -0.0001631682545703087)
(0.9999696033486819 5.79628321078113e-06 -0.0001368351358944284)
(0.9999658444424674 4.812120630774546e-06 -0.0001130048875600669)
(0.9999637466889391 3.915327843412125e-06 -9.149950904696825e-05)
(0.9999931397616385 4.776680965688212e-06 -0.000119635492522329)
(0.9999873969438383 4.00960624982606e-06 -9.976839931740823e-05)
(0.9999834454967212 3.293080535444502e-06 -8.144684426764193e-05)
(0.9999807973412087 2.623923837185739e-06 -6.455018238337912e-05)
(0.9999790776339116 1.995987758739847e-06 -4.888121440948569e-05)
(1.000000222699335 2.766805256077294e-06 -7.108604451461995e-05)
(0.9999964504997232 2.220769889557152e-06 -5.66808744811422e-05)
(0.9999937745215633 1.699205229763027e-06 -4.312812714061031e-05)
(0.999991960956137 1.198189018221989e-06 -3.027974141704802e-05)
(0.9999908417443349 7.125708101686374e-07 -1.795391893924841e-05)
(1.000006421664585 1.448491312859852e-06 -3.720114848428644e-05)
(1.000004082575952 1.025611819828128e-06 -2.620109437617804e-05)
(1.000002598474336 6.116150307191688e-07 -1.556811982993978e-05)
(1.000001878811652 2.032326087224754e-07 -5.163559129685319e-06)
(1.000012630620126 5.274859175033016e-07 -1.313392010406088e-05)
(1.0000117807111 1.755019029390799e-07 -4.36014122970444e-06)
(0.9999997464855769 9.284124642325682e-06 -0.0002229886454371602)
(1.000001288114458 5.592795228753963e-06 -0.0001410466457693764)
(1.000005396971017 3.339329141618977e-06 -8.643867643525373e-05)
(1.000009753755632 1.882749935220638e-06 -4.868454953151265e-05)
(0.9999527352692058 4.001712746167802e-05 -0.0001761598614116463)
(0.9999538889327133 2.949854909499529e-05 -0.000217479879376289)
(0.9999622603240981 1.178032288504166e-05 -0.0002617468760336629)
(1.000133190523243 6.400943976973525e-05 -0.0003152879803087781)
(1.000245815150563 4.064675326704088e-05 -0.0003442427794182054)
(1.000184542599179 4.138344804368753e-05 -0.0003443976425220653)
(1.000130754324165 4.026935390581246e-05 -0.000331412653745653)
(1.000246567982657 1.352474675119639e-05 -0.0003508260159959515)
(1.000184739762861 1.400961108383494e-05 -0.000353113375374926)
(1.000129651653485 1.372413150862335e-05 -0.000339791815968107)
(1.000233694786506 2.907052802855604e-05 -0.0002597691492178484)
(1.00018669901592 2.990976472087527e-05 -0.0002650924680011888)
(1.000143799127748 2.957668148391436e-05 -0.0002599654844431979)
(1.000234654007981 9.85866811225236e-06 -0.0002657784102191384)
(1.00018690757026 1.016867203490876e-05 -0.0002712635439923478)
(1.000143268052331 1.006867986953232e-05 -0.0002658396206072028)
(1.000220780748707 2.099781540452344e-05 -0.0001971855228829328)
(1.000184334037951 2.191934069558871e-05 -0.0002043286506909679)
(1.000149987208625 2.200983476947921e-05 -0.0002035176474185388)
(1.000221711658701 7.139586852816147e-06 -0.0002015350582616837)
(1.000184674740839 7.451935589622774e-06 -0.0002086848082400454)
(1.000149810961316 7.481265698280027e-06 -0.0002076865167916172)
(1.000208637068091 1.54175436006145e-05 -0.0001497860581655452)
(1.000179972583263 1.631670029900683e-05 -0.0001571488022277247)
(1.000152214913147 1.66154274537087e-05 -0.0001585392468391892)
(1.000209465893935 5.237135183700537e-06 -0.0001528193545616632)
(1.000180373053873 5.539711221878011e-06 -0.0001602144213313449)
(1.000152237889235 5.638295206779417e-06 -0.0001615110276688157)
(1.000197991193613 1.15489623185351e-05 -0.0001131703254051735)
(1.000175035778919 1.237399321806033e-05 -0.0001199293504538473)
(1.000152282370663 1.276019293453471e-05 -0.0001222557350896273)
(1.00019870611625 3.916556695028733e-06 -0.0001152742248992111)
(1.000175441828013 4.194333501866389e-06 -0.0001220838122228893)
(1.000152408479683 4.323124760550008e-06 -0.0001243730706557931)
(1.00018912842685 8.86560806027314e-06 -8.423578992834284e-05)
(1.000170321415465 9.60386341982343e-06 -8.998035558803065e-05)
(1.000151306614435 1.001531266365876e-05 -9.249026508734767e-05)
(1.000189741141563 3.001586305247924e-06 -8.568738724821038e-05)
(1.000170707613326 3.250307977024304e-06 -9.148433951649983e-05)
(1.000151481429646 3.388199963470825e-06 -9.398631322046929e-05)
(1.00018211738846 7.022699601378886e-06 -6.073107048648667e-05)
(1.000166267288825 7.681600419729924e-06 -6.527175331141882e-05)
(1.000149975766153 8.089841780799821e-06 -6.752385715290144e-05)
(1.000182647558027 2.374094047883204e-06 -6.171380846797701e-05)
(1.000166626119106 2.596132971670447e-06 -6.629951402199857e-05)
(1.000150170478871 2.733276492165554e-06 -6.855623634857638e-05)
(1.00017693242686 5.797122645147791e-06 -4.097589720061106e-05)
(1.000163105634759 6.39311988998476e-06 -4.423681767866032e-05)
(1.000148708136015 6.78838870821528e-06 -4.597775154474796e-05)
(1.000177401519698 1.957314064284267e-06 -4.160763250814198e-05)
(1.000163439100192 2.158153301102556e-06 -4.490208603515792e-05)
(1.000148908835056 2.291092315758764e-06 -4.665091547250395e-05)
(1.00017351869818 5.048004205813374e-06 -2.366742571202315e-05)
(1.000160953963697 5.601154793051845e-06 -2.562565819175103e-05)
(1.000147751334992 5.98369787767662e-06 -2.67157782739091e-05)
(1.00017394780979 1.702794401526211e-06 -2.402051701359192e-05)
(1.000161268785554 1.889177599502613e-06 -2.599919659129174e-05)
(1.000147952459802 2.017906068966496e-06 -2.709559038571658e-05)
(1.000171826093684 4.692592508228434e-06 -7.740287503849712e-06)
(1.000159867458046 5.224166629123962e-06 -8.392822865879385e-06)
(1.000172235490089 1.582106553399551e-06 -7.853861135729004e-06)
(1.000160172538735 1.761206541737788e-06 -8.513247089792372e-06)
(1.000147442900491 1.887466387322665e-06 -8.885845209816428e-06)
(0.9999463801563515 3.699216008566593e-07 -7.950496914176892e-06)
(0.9999726078879472 5.540370191700941e-05 -0.0002462466913731277)
(0.9999601385918667 4.736233550315256e-05 -0.0002094775541030821)
(0.9999658196870445 3.461148611675063e-05 -0.0002564337669281654)
(0.9999920817071833 6.398750119195835e-05 -0.0002858560320922588)
(0.9999849428425601 4.011143509465555e-05 -0.0002987118904731816)
(0.9999811788878199 1.367769299063555e-05 -0.000305446237869453)
(1.000059415402202 8.0850048523894e-05 -0.0003652449478790096)
(1.000020338134921 7.266504701606435e-05 -0.0003263705889097891)
(1.000052886391635 5.107153467634229e-05 -0.0003847507690897167)
(1.000013213424617 4.572283457824607e-05 -0.0003423592720623416)
(1.00004953183976 1.746899470513079e-05 -0.0003950747827923238)
(1.000009449065712 1.562011408793103e-05 -0.0003507754641324014)
(1.000106167037573 5.560639702063256e-05 -0.000422270454587195)
(1.000175186258875 1.943099691656786e-05 -0.0004624075316180222)
(1.000104202558918 1.897440403161588e-05 -0.0004346276632424901)
(1.00019936914335 2.237090154471968e-06 -4.121023238064537e-06)
(1.000191997541511 3.183624426235413e-06 -5.582344562555234e-06)