/*--------------------------------*- C++ -*----------------------------------*\
  =========                 |
  \\      /  F ield         | OpenFOAM: The Open Source CFD Toolbox
   \\    /   O peration     | Website:  https://openfoam.org
    \\  /    A nd           | Version:  7
     \\/     M anipulation  |
\*---------------------------------------------------------------------------*/
FoamFile
{
    version     2.0;
    format      ascii;
    class       volVectorField;
    location    "0";
    object      grad(Phi);
}
// * * * * * * * * * * * * * * * * * * * * * * * * * * * * * * * * * * * * * //

dimensions      [0 1 -1 0 0 0 0];

internalField   nonuniform List<vector> 
12667
(
(-0.3333223896086343 4.122419033203982e-05 -5.902602618305546e-06)
(-0.9999500137267355 4.313412225142271e-05 -6.17685543467669e-06)
(-0.9999141653614777 4.711407980878998e-05 -6.748592125709406e-06)
(-0.9998743158234232 5.350715081265707e-05 -7.667660974443994e-06)
(-0.9998284048543324 6.289020144997977e-05 -9.018070868635541e-06)
(-0.9997738362670092 7.616407344402727e-05 -1.093149903054236e-05)
(-0.9997071982737777 9.470511827339917e-05 -1.361025134127017e-05)
(-0.9996238508219014 0.0001206186039540795 -1.736609538054111e-05)
(-0.9995172853866162 0.0001571714522755708 -2.268618667316559e-05)
(-0.9993780445183399 0.0002095657193680052 -3.03426324122788e-05)
(-0.9991990615091352 0.0002921118668037578 -4.334896680666547e-05)
(-0.3333218773529139 2.53131314841309e-05 -6.029187014227204e-06)
(-0.9999476426496339 2.650785238764385e-05 -6.315187190290118e-06)
(-0.999909984071381 2.900064870641036e-05 -6.912173539074916e-06)
(-0.9998679437660575 3.301368451775924e-05 -7.873900512382409e-06)
(-0.9998192279060542 3.892242620651034e-05 -9.291346575189574e-06)
(-0.9997609020527271 4.731752910722322e-05 -1.130792456110455e-05)
(-0.9996890394339527 5.911011054028963e-05 -1.41454359974029e-05)
(-0.999598186556562 7.57096284536706e-05 -1.814802903767548e-05)
(-0.999480521874022 9.932658035001389e-05 -2.38569538569635e-05)
(-0.9993245107177595 0.0001334885305759305 -3.213770017347087e-05)
(-0.9991187927756381 0.0001873824533497931 -4.631515537445258e-05)
(-0.3333216130400487 8.536483386177842e-06 -6.093912205991558e-06)
(-0.9999464183974466 8.942934498234249e-06 -6.38600591943926e-06)
(-0.9999078221751508 9.791549515806854e-06 -6.996108053953176e-06)
(-0.9998646420903606 1.115921933183892e-05 -7.98004409525557e-06)
(-0.9998144586058579 1.317625206071329e-05 -9.432496963057231e-06)
(-0.999754153274784 1.604844635986288e-05 -1.150313512991745e-05)
(-0.9996795159769148 2.009486935687698e-05 -1.4424206297611e-05)
(-0.9995846397638373 2.581209549691134e-05 -1.855753203053937e-05)
(-0.9994609509570467 3.398466149043052e-05 -2.447596618905299e-05)
(-0.9992955932985369 4.58812105737121e-05 -3.311119419682604e-05)
(-0.9990758945221325 6.491750733092722e-05 -4.805641048159564e-05)
(-0.3333226736561935 4.073098311531431e-05 -2.621582239288145e-05)
(-0.9999513280318642 4.259576478751516e-05 -2.742077386945521e-05)
(-0.9999164814343698 4.647880097480663e-05 -2.993086047128977e-05)
(-0.9998778416207557 5.270846780984605e-05 -3.396066592779142e-05)
(-0.999833475459884 6.183544164501263e-05 -3.987072259033588e-05)
(-0.9997809705473862 7.471654167163031e-05 -4.822366916144685e-05)
(-0.9997171948788215 9.265497249034427e-05 -5.98791016525999e-05)
(-0.9996379509357205 0.0001176341993947013 -7.615366591673593e-05)
(-0.9995374453637904 0.0001527179960516037 -9.909594162077403e-05)
(-0.9994073702002267 0.0002027677308943302 -0.0001319526563540145)
(-0.9992410935614137 0.0002813912789442636 -0.0001836910986352819)
(-0.3333221735673832 2.500829752548584e-05 -2.677585595642062e-05)
(-0.999949014432271 2.617459062620896e-05 -2.803222274627319e-05)
(-0.9999124056438636 2.860625519437356e-05 -3.065270554383291e-05)
(-0.99987163998131 3.251593119338916e-05 -3.486870014112897e-05)
(-0.9998245629077011 3.826207693517898e-05 -4.107066193840405e-05)
(-0.9997684432273649 4.640668037744985e-05 -4.987146236705456e-05)
(-0.9996996660248356 5.781314934612027e-05 -6.221379487976025e-05)
(-0.9996132740932366 7.381118543993678e-05 -7.955093429379033e-05)
(-0.9995022558273935 9.647473386865494e-05 -0.0001041520038647792)
(-0.9993564201320259 0.0001290770859741793 -0.0001396096057751863)
(-0.9991648588241321 0.0001799191262446788 -0.0001957785227218665)
(-0.333321915565677 8.43336751814273e-06 -2.706218445285048e-05)
(-0.9999478200231353 8.830103670476395e-06 -2.834521613251662e-05)
(-0.999910298627317 9.657803889951228e-06 -3.102303261307307e-05)
(-0.9998684271945586 1.099004627063838e-05 -3.533594455403708e-05)
(-0.9998199319794295 1.295120934941006e-05 -4.169031587300382e-05)
(-0.9997619082517856 1.573707297261859e-05 -5.072578921503301e-05)
(-0.9996904754863855 1.964997264800204e-05 -6.342945171141987e-05)
(-0.9996002558908114 2.515820027927888e-05 -8.132821435741339e-05)
(-0.9994835611107696 3.299581893319257e-05 -0.0001068154726113009)
(-0.9993291169571714 4.432597474162917e-05 -0.0001437120224035695)
(-0.9991249383917644 6.219871124793457e-05 -0.0002027641573016226)
(-0.9987057891535787 0.0002537380790816842 -3.782340407420049e-05)
(-0.9989103058989349 0.0002767446329904043 -0.0003054648438389533)
(-0.9986636533238912 0.000154853296194951 -3.842546859241263e-05)
(-0.9987154912904769 5.106427676105845e-05 -0.0002751279010789609)
(-0.9982667341229442 0.0005533601153063564 -2.680239327288458e-05)
(-0.9983632948150495 0.0005312942324937749 -0.0003495852098548134)
(-0.9980908774602805 0.000280279147536739 -2.928970917733303e-05)
(-0.9981860805877075 0.0002674580300630676 -0.0003784122771954681)
(-0.9975961105316021 0.0008525833199612913 -4.181370399314767e-05)
(-0.9978381659527079 0.0008901880169176435 -0.0005195038228510699)
(-0.9977448562205524 0.0008114783077344813 -0.0005370299653910838)
(-0.9972915299464523 0.0004369839750358864 -4.602094644776692e-05)
(-0.997462462321048 0.000414942300772317 -0.0005897126066389961)
(-0.9928250424962145 0.004499590044685917 -0.0002038785842950584)
(-0.9973793145808844 0.0009558037356892044 -4.698569654335846e-05)
(-0.9959214785812978 0.00099270711168867 -0.0008655294076363445)
(-0.9921245523946409 0.004259600414261185 -0.0002196113352104374)
(-0.9976573643960183 0.0009930495957113643 -0.0005807262327804348)
(-0.9938047964517193 0.004030448463357508 -0.002457466927078235)
(-0.9975505410985994 0.000906940241490646 -0.0006014955905902945)
(-0.9960630590745853 0.0009655900536769806 -0.001081808077582368)
(-0.9916525283884721 0.002670245121578936 -0.003110189009285956)
(-0.9970275032618505 0.0004924738373437086 -5.199123186812906e-05)
(-0.9958015032001385 0.0007899157366991333 -0.0008860696550008365)
(-0.9897734874424795 0.002427465465419726 -0.0002712853999198474)
(-0.9972260548567249 0.0004662665774928848 -0.0006640894163163873)
(-0.9959480351044105 0.0007681637872663426 -0.001107212424037816)
(-0.9912554862905124 0.002152698158164727 -0.003230095197828213)
(-0.9920014280191605 0.005268222084785851 -0.0002401907992140204)
(-0.9891881955762156 0.008943878747445115 -0.004917169812607941)
(-0.9931886154734134 0.004673610221073171 -0.002868434773854716)
(-0.9898771125596605 0.008651069423112487 -0.005360177939010264)
(-0.9911490346966241 0.005014194577823369 -0.0002605765717002072)
(-0.9884685684142369 0.008756874008213514 -0.005126391598136208)
(-0.9478850172514126 0.03261141300218862 -0.05016287847664944)
(-0.9905925410678276 0.003145045487515505 -0.00369601326765875)
(-0.988878709019445 0.008506887177979303 -0.005657555355860997)
(-0.9553726105959437 0.03042913415441959 -0.04909019916188693)
(-0.9521941119643937 0.03269618994135694 -0.05526144925584663)
(-0.9466614128184966 0.03468576022576265 -0.05521025252992043)
(-0.9445785754441126 0.03305277677233975 -0.05695203746912105)
(-0.9882498504150259 0.002904152817615484 -0.0003280242571713165)
(-0.9827897993662239 0.00566107026283211 -0.007039006589452604)
(-0.9460577866626708 0.03114259055914313 -0.0526415667217978)
(-0.9901186962215838 0.002542777923106123 -0.003851041146330489)
(-0.9836379142910781 0.005452648411694871 -0.007665565773553001)
(-0.9504619571013533 0.02884192834433253 -0.05279312010779764)
(-0.9983270537176183 0.0006097162823556085 -2.603781531399981e-05)
(-0.9983800781051743 0.0005989810624084309 -0.0002682370881870294)
(-0.9986245349701945 0.0004784241684688477 -4.374430085806464e-05)
(-0.9986136777758585 0.0003903983678042804 -0.0002119819808517222)
(-0.9983305326844301 0.0005398036837789281 -0.0002744149603940263)
(-0.9981239788584265 0.0003550873854042896 -2.886867408296989e-05)
(-0.998180094922389 0.0003454660194917708 -0.0002944535240039487)
(-0.9985123490906072 0.0002627656260180412 -1.614945478232051e-05)
(-0.9985516378290538 0.0003002581772639362 -0.0002324607449060439)
(-0.9984865010319489 0.0005386335776938838 -1.322526526566403e-05)
(-0.9975602648500435 0.001353284286981158 -0.001099585672317898)
(-0.9984189070189716 0.000591750471813804 -0.0003416291774327021)
(-0.9987100859895368 0.0004871654194888389 -0.0002974018364292314)
(-0.998218132815831 0.0003380234115997365 -0.0003713133295856565)
(-0.9985958713262755 0.0003060758939538936 -0.0003405768812557709)
(-0.9985449853094307 0.0003202879465288742 -0.0002502373529701949)
(-0.9981485893856825 0.0002730046443133563 -0.0002996386699863973)
(-0.9980397876978101 4.091925667090934e-05 -2.990860670813915e-05)
(-0.998100532514978 3.993288695678707e-05 -0.0003065310656127798)
(-0.9984789884525254 0.000212082881686966 -1.700334234938789e-05)
(-0.9984472736650526 2.413907968388482e-05 -1.658650463879579e-05)
(-0.9984865368729278 2.497731271984082e-05 -0.0002304415357992118)
(-0.9985133560692006 0.0002156208497668432 -0.0002331772304910965)
(-0.9981395159057155 3.925844788400803e-05 -0.0003875586985470861)
(-0.9985250755595182 2.371606783890302e-05 -0.0002830225764847714)
(-0.9985577190609858 0.0002133972535248144 -0.0003204845454676237)
(-0.9976968730105124 0.000934683521268096 -4.042283232347443e-05)
(-0.9977829826270247 0.0009076298499293842 -0.0004120624586182112)
(-0.9981927494155743 0.0006771465715971243 -2.904790072305801e-05)
(-0.9982519836294214 0.0006618381358035858 -0.0002984588108426847)
(-0.9976867660473309 0.0008275685957697872 -0.0004260566012423267)
(-0.9973500688252114 0.0005521836586607469 -4.521131687781604e-05)
(-0.997451638029874 0.0005353613406209836 -0.000460135894819058)
(-0.998124308127166 0.0006146224098940296 -2.989819317119518e-05)
(-0.9981877419363567 0.0005994233988022777 -0.0003063837106951691)
(-0.9979608753807925 0.0003944489773006025 -3.210540285500069e-05)
(-0.9980267638266058 0.0003835925178918842 -0.0003277639570100529)
(-0.998290112046303 0.0006520548868357192 -0.0003781806706344036)
(-0.9975167771623837 0.0005245663583262503 -0.0005795799147925856)
(-0.9982270652357577 0.0005900572192137877 -0.0003881379293136038)
(-0.9980700632181897 0.0003763343921210585 -0.0004138137937624229)
(-0.9973956822994891 0.0004235598329562259 -0.0004682624815076071)
(-0.9972009090257812 6.409802067581118e-05 -4.727397032705337e-05)
(-0.9973090986857307 6.210429928954351e-05 -0.0004808503049404102)
(-0.9979227418728064 0.0003115253538483117 -3.261066832896298e-05)
(-0.9979899499817811 0.00030300895364924 -0.0003331733583161758)
(-0.997863980767833 4.553689404491921e-05 -3.337052652464176e-05)
(-0.9979337065281534 4.432324561392919e-05 -0.0003412050351125447)
(-0.9973784283178364 6.082338279938083e-05 -0.0006054115585999185)
(-0.9980335412026431 0.0002972516463236403 -0.000420673479552847)
(-0.9979785577379997 4.351556306677236e-05 -0.000430915525842187)
(-0.9974950493551952 0.00104584122641864 -4.533150300754948e-05)
(-0.9975940200650915 0.001013713082523599 -0.0004611929344147733)
(-0.9967429726819098 0.001491319421190314 -6.514868263290197e-05)
(-0.9968968794591037 0.00143647331282017 -0.0006584827124795619)
(-0.9964316718346203 0.001689344856012236 -7.403123318332649e-05)
(-0.9952495432104389 0.002508773694843717 -0.0001112128318714487)
(-0.9966114200445069 0.001623184857348411 -0.0007463316145152325)
(-0.9955436294756775 0.002388753533756209 -0.001110591441350089)
(-0.9934335356817315 0.004209223169398542 -0.001998916571620321)
(-0.9947515400033279 0.002884464572064419 -0.0001284679782751071)
(-0.9951014323831012 0.002736321348594215 -0.001277926335408893)
(-0.9974837363956309 0.0009260535064907578 -0.0004778135484003799)
(-0.9970953653666685 0.0006217087393386356 -5.1027326802132e-05)
(-0.9972132491388386 0.0006017021973347117 -0.0005183374520512324)
(-0.9963056843798408 0.000871201786625755 -0.000756923963609276)
(-0.9961161922115482 0.0009062231954742335 -7.504237218162759e-05)
(-0.9965635384401488 0.001371974794829727 -6.799657469846079e-05)
(-0.9967274819697711 0.001320751390407027 -0.0006868454898722949)
(-0.9956972528533711 0.001035422307161034 -8.605436548824872e-05)
(-0.9944185684927225 0.001504993993035072 -0.001329671056649032)
(-0.9940339721446958 0.001585558240413653 -0.000133606833450122)
(-0.9962223619341426 0.00155816407199766 -7.747811972962979e-05)
(-0.9949086047896905 0.002335328229563238 -0.0001175412911328006)
(-0.9964145879122686 0.001496163096154346 -0.0007805380386426521)
(-0.995227619360456 0.002221497410067481 -0.001172577701854506)
(-0.9902556166255926 0.003009456316375762 -0.0002609744089578504)
(-0.9911280179669683 0.002799130421621875 -0.00254007811491564)
(-0.9928034242892443 0.003978245420336837 -0.002148183894480475)
(-0.9937650800064294 0.001744353378713154 -0.001549691247132152)
(-0.9932987151872861 0.001845320217986595 -0.0001564026165080951)
(-0.9943466365690953 0.002694850890732453 -0.0001363177307036232)
(-0.9947283703998023 0.002553685465094469 -0.001354390040011472)
(-0.9969946279930146 0.001401473844708791 -0.0008256490829518078)
(-0.9967252028930885 0.001581089113530484 -0.0009342340527119979)
(-0.995727505369543 0.00231319994319969 -0.001381720150608057)
(-0.9953190837596365 0.002643475099133559 -0.001585942490662406)
(-0.9972886313870155 0.0005888765915893851 -0.0006520555926372352)
(-0.9964257659594442 0.0008489011945874513 -0.0009478137124880916)
(-0.9968315334639312 0.001288084773890957 -0.0008608687140434354)
(-0.9946581360508225 0.001454409840070301 -0.001650619803333271)
(-0.9965361756822828 0.001456741593603803 -0.0009766117996243694)
(-0.9954268521014004 0.002149913315457935 -0.001457873375145986)
(-0.9932160439212493 0.003805355603311121 -0.002637911045940611)
(-0.9940538927469028 0.0016812359671752 -0.0019183241570194)
(-0.9949655062302166 0.00246531732153908 -0.001679562560037406)
(-0.9971486195541516 0.0004765029674685523 -0.0005279935730401922)
(-0.9969222258971566 7.234332631886525e-05 -5.348517365152909e-05)
(-0.9970483838471662 6.99685562958271e-05 -0.0005429585209178603)
(-0.996203579375384 0.0006923015459419666 -0.000773782822405231)
(-0.9960077955664636 0.0007203558318845072 -7.673915192087585e-05)
(-0.9958385320212909 0.0001063819936183228 -7.938109246491146e-05)
(-0.9960442063466787 0.0001021909524795408 -0.000800022609586576)
(-0.9955693493460929 0.0008241891469013432 -8.812910567589299e-05)
(-0.9942181440841178 0.001203278779734879 -0.001368258556367405)
(-0.9938169999615081 0.001268253482325439 -0.0001375522925307431)
(-0.9953691483400812 0.0001219688790526491 -9.136566033066068e-05)
(-0.9956137916903195 0.0001168376427047032 -0.0009181043242078061)
(-0.9934748750644666 0.0001890274588671395 -0.0001437280392927236)
(-0.9939019575751388 0.0001792564724635988 -0.001428829010322866)
(-0.9906977522971638 0.002258442075264739 -0.002640388974819048)
(-0.9890214968706484 0.0003649104722489423 -0.0002868941394828842)
(-0.9900067888154181 0.0003407121849733233 -0.002797039753490329)
(-0.9935247306068302 0.001397291023541018 -0.001597979051035059)
(-0.9930368591945956 0.001478823821360143 -0.0001613589050709306)
(-0.9926232532209202 0.0002209680669387532 -0.0001690974991761843)
(-0.9931443220282129 0.0002087368125321856 -0.001673900942133931)
(-0.9971290132920466 6.844653990119974e-05 -0.0006827347594940317)
(-0.9963276066752452 0.0006744429048392965 -0.0009687149811138207)
(-0.9961744371162453 9.95240581830851e-05 -0.001001236451133976)
(-0.9944679167784904 0.001162462727287934 -0.001697925807406892)
(-0.9957681294698046 0.0001135818548875777 -0.00114682212263751)
(-0.9941679327472641 0.0001731006737784308 -0.001772215186097531)
(-0.9906145342947505 0.0003247998603160898 -0.003421807397466206)
(-0.993826753928019 0.001346241208731438 -0.001977304197653251)
(-0.9934673576474662 0.0002010217403681718 -0.00207017992490045)
(-0.9608011799332126 0.06115394276267564 -0.001893213214784479)
(-0.9659587042269737 0.05604591176485898 -0.01820290059710725)
(-0.94063033566334 0.05838742699352722 -0.02849076157177214)
(-0.9301722399513987 0.06453590397326849 -0.001153155588234788)
(-0.9688806742967202 0.05746912122185849 -0.001626189772722968)
(-0.972907185414997 0.05289302105159297 -0.01571129742572028)
(-0.9881276401243143 0.04186373883228543 -0.009891471051523456)
(-0.9863201739873309 0.04486540194759604 -0.00101021928735081)
(-0.9927406849117218 0.004898900820373175 -0.002342580616644095)
(-0.990073646946075 0.007915781525472647 -0.004007342742460804)
(-0.9879733032211307 0.009148316956317097 -0.0002214949907241667)
(-0.9872436182461398 0.01001655134456112 -0.0002388617570874429)
(-0.9850060836516815 0.01666504589503349 -0.009594716844927886)
(-0.9803998166909599 0.01999163756699981 -0.0005173867685820243)
(-0.99180992951695 0.03063815918498539 -0.01535156482399721)
(-0.9697181435870014 0.0505408980405142 -0.001419849293008263)
(-0.9843940188464216 0.01832026778825936 -0.010639840599291)
(-0.9791514439597826 0.02224865836090419 -0.0005814290074666501)
(-0.9911598780454042 0.00758434357809151 -0.004797930824091755)
(-0.9860828938938681 0.01586301004734564 -0.01031925726657683)
(-0.9931645160724502 0.02843962894042305 -0.01610518540428068)
(-0.9856013927478252 0.01738440993720222 -0.01140474590641956)
(-0.9796034761694843 0.04188046461547609 -0.02862809302527062)
(-0.9690191138109745 0.05296329175588638 -0.02204520521719798)
(-0.944491015857051 0.05638443254674662 -0.03078172701968951)
(-0.9647849099337684 0.044229270944219 -0.0404938006690204)
(-0.9932241086351264 0.0330647762265567 -0.01665034118372351)
(-0.9837476545792662 0.04004094173905359 -0.02515050469169897)
(-0.97530719427627 0.05012569905183423 -0.01910109508821516)
(-0.9892205748533986 0.04002343437923487 -0.01214946729628434)
(-0.9830758372189832 0.03804587037547406 -0.02928480404806459)
(-0.9919090144911339 0.0275235804507307 -0.02800236504481981)
(-0.9707557081705182 0.03983665063709782 -0.04086878802300057)
(-0.9853451686840718 0.02810310792922538 -0.0374765879433746)
(-0.9888530665971559 0.003589614239635569 -0.0003143999063909826)
(-0.9899524802157652 0.003312334980153676 -0.003033014782533434)
(-0.9919841346643011 0.004653839421579758 -0.002531766979197323)
(-0.9882383694024977 0.007831071170465088 -0.004542616718121983)
(-0.9871269532711432 0.009050410395891049 -0.0002342259587365632)
(-0.9845182441686524 0.005667200698857395 -0.006144801988575683)
(-0.9816593631342709 0.006451634821515707 -0.0003134448624925516)
(-0.9863144849570901 0.009914441448288689 -0.000255892705083707)
(-0.9834009397310459 0.01673294744000707 -0.01033725168709714)
(-0.9782268432365313 0.02015819707307938 -0.0005605149661923974)
(-0.9833853174806819 0.006253328718734063 -0.0068406609146871)
(-0.9801095615910691 0.00715900608461765 -0.0003513121385122213)
(-0.9719509980581291 0.0130029231576798 -0.01548855273782227)
(-0.9625190199786444 0.01595105365865537 -0.0008641012754234192)
(-0.979132942068637 0.03772592045364952 -0.0254795014046635)
(-0.9628384297089024 0.05325851983990613 -0.001630822620792919)
(-0.9826050337500134 0.0184530539072 -0.0115101246364786)
(-0.9766731480360404 0.02251689050067012 -0.0006329512049053678)
(-0.9380911634224021 0.05297867780823441 -0.02699942511368886)
(-0.9696721636427175 0.01453871233170079 -0.0176175315736303)
(-0.9584935286004405 0.01808892434262901 -0.001000316626231989)
(-0.9924851826704453 0.004434313746912379 -0.003095872311395216)
(-0.9895897111767707 0.007248561238836616 -0.005242393772599971)
(-0.9852687596266347 0.005471901825629998 -0.006717965762711223)
(-0.9846046633556128 0.01591006381925146 -0.01110218886201516)
(-0.9842040971184731 0.0060265137086295 -0.007455005423666313)
(-0.9740971164248876 0.01230313589027845 -0.0165121687341474)
(-0.9822621854819236 0.03453200488513274 -0.02626719861563041)
(-0.9839636611269241 0.01748887400808923 -0.01231792919197766)
(-0.9721694819866195 0.01370682971951078 -0.0186988082167924)
(-0.9763279755400535 0.02355780269551546 -0.04996268153619057)
(-0.9665898106125772 0.03955299796717701 -0.04536508854308824)
(-0.9830164071146489 0.02755696564410882 -0.0407366141280457)
(-0.9388607629390916 0.05616889047628403 -0.03266129499057113)
(-0.9589197091064576 0.04403484186674935 -0.04526910831817425)
(-0.9125806288266876 0.0464617694676147 -0.04358801955074788)
(-0.9340185510074052 0.01944560593974997 -0.06561161939760719)
(-0.9093185965650313 0.04426892744441677 -0.0449368224537438)
(-0.8924538147243356 0.02560683322321354 -0.05202362389428759)
(-0.9894187018911043 0.002682499994816462 -0.003165805362992294)
(-0.9873836488972287 0.0004502367035903053 -0.0003655412694044229)
(-0.9885602304680111 0.0004065610139052834 -0.003370336039652586)
(-0.9839822319957502 0.005127487189303742 -0.006320671004752938)
(-0.9810211302455396 0.005840907409253143 -0.0003224877383785789)
(-0.978586469917739 0.0004244662501894082 -0.0003555999880731126)
(-0.982002540956409 0.0003735688502281819 -0.006969740013826874)
(-0.9793834291628306 0.006487344410533938 -0.0003619199144347597)
(-0.9705605903424247 0.01184741739840642 -0.01610359061279221)
(-0.9606038506311056 0.01454808635287104 -0.000900542268365596)
(-0.9766195469874471 0.0004737132238889455 -0.0004013499121314907)
(-0.9805531510009176 0.0004131618093086979 -0.007787539108787385)
(-0.9533389112544545 0.001081358356992335 -0.001037469312168227)
(-0.9652644148308166 0.0008806661569174156 -0.01843745678419825)
(-0.9353387345246756 0.01632622710864609 -0.06125807421453274)
(-0.8873898100397256 0.001470085766918737 -0.04554735181940914)
(-0.8943260654277182 0.04701294779778172 -0.001885982122934696)
(-0.9680930933563152 0.0132573788251562 -0.01835052051260758)
(-0.9562672449149956 0.01650902067534848 -0.00104450386141042)
(-0.947858854237034 0.001225758327749283 -0.001209427931657966)
(-0.9620866130779957 0.0009870978364403466 -0.02112991725924201)
(-0.9893258200800258 0.000385750216139122 -0.004102844580752568)
(-0.9847334682123096 0.004942943983768826 -0.006897542673766981)
(-0.9828482056079205 0.000360132673921812 -0.00759688410109035)
(-0.9728228225621584 0.01120642136797604 -0.01715690115755173)
(-0.9815212676300594 0.000397559909991637 -0.008469309602168426)
(-0.9679665175284976 0.0008324215998760695 -0.01960382771457002)
(-0.9405276645642247 0.0155657588382626 -0.06133130497156492)
(-0.9707310441720527 0.01249526223938681 -0.01946330860379734)
(-0.9652551156647334 0.0009297761737062576 -0.02236353551114374)
(-0.9330165836872071 0.01724575592402021 -0.06644141961794049)
(-0.9295479117964457 0.001167069672227166 -0.06933144926149618)
(-0.8856263141519177 0.001522820450619905 -0.05497586902657654)
(-0.8909069893383527 0.02266598933675434 -0.05268697143089941)
(-0.8861406633694145 0.05079706727770954 -0.002101010299347407)
(-0.9047103664791202 0.04560929910932898 -0.04118309067701598)
(-0.887041334997505 0.02632872332342407 -0.04769649223205237)
(-0.8652705633856651 0.02908969290707842 -0.00243655436584311)
(-0.9363815338106439 0.05763250541614191 -0.02976040174694708)
(-0.9245362546824167 0.06408762152116523 -0.001493178505205351)
(-0.8902382677300419 0.05338278921256662 -0.002036376097622066)
(-0.9081384414694531 0.04788104587780451 -0.03994039653382386)
(-0.8799211014718222 0.001563879343122191 -0.05039964029311507)
(-0.8569965421137449 0.001719494980267773 -0.002573496307894019)
(-0.885426231818199 0.02329941290134791 -0.04830453786527306)
(-0.8633868790801633 0.02571814182178259 -0.002467538232721296)
(-0.9493781918980484 0.03125803780452858 -0.05697620975789823)
(-0.9988197765475865 0.0004134644206060408 -3.372338986857472e-05)
(-0.9988389600288757 0.0004067581087651373 -0.0001487191042754496)
(-0.9989665073662088 0.0003423321279383124 -2.136089129265644e-05)
(-0.9989795882072871 0.0003403477747574164 -0.0001316379167746822)
(-0.9987362314214349 0.0002543607038370435 -0.0001685459231560526)
(-0.9987953937712819 0.0003497101014330284 -3.880057390073772e-05)
(-0.9989211898440082 0.000371220537056445 -0.0001918619502920454)
(-0.9988617631741937 0.000198479414149651 -2.312419684727404e-05)
(-0.9988761641342083 0.0001966176878465482 -0.0001420197244283473)
(-0.9988933551837422 0.0002871509911018493 -2.369784341666494e-05)
(-0.9989102096158059 0.0002827499117472303 -0.0001344673373658287)
(-0.9988809709548409 0.0004004534804216426 -0.0002421734487496263)
(-0.9990203796595214 0.0003324144772032303 -0.0001929281416317415)
(-0.9988104979422533 0.0003199640793642837 -0.0002486244893337405)
(-0.9989247616707638 0.0001908223903092227 -0.0002071812653861071)
(-0.9989490184046197 0.0002768858273599113 -0.0002021251760042354)
(-0.9986454034886572 5.244028311899505e-05 -3.872570735488047e-05)
(-0.9986675668199726 5.198241382437301e-05 -0.0001684296023003011)
(-0.9986860982704484 0.0001535229531232664 -0.0001672837914300446)
(-0.9988202069610083 0.0001350382766910771 -2.421006495834789e-05)
(-0.9988093451073429 3.440597745232637e-05 -2.380258358983403e-05)
(-0.998824607221229 3.496881176894392e-05 -0.0001456494971137512)
(-0.9988354144645015 0.0001331313225335498 -0.0001437727207342167)
(-0.9987425422511991 0.0001544259424002229 -0.0002765703506421987)
(-0.9988723672503167 3.330938653523771e-05 -0.0002144936441836107)
(-0.9988824590809108 0.0001311875893686122 -0.0002126788310523611)
(-0.9983534725219249 0.0004412982174610714 -0.0001117118031723502)
(-0.9982759428185563 0.0005508292072638945 -0.0001198125991129676)
(-0.9982119538970199 0.0004918220577629619 -2.762617829237272e-05)
(-0.9983954600496688 0.0004995225892957418 -2.411894282124593e-05)
(-0.9984025873760876 0.0004967140883575908 -0.0001068192873038583)
(-0.998220988960562 0.000489389357690802 -0.0001236112354690547)
(-0.9983467405998827 0.0004438492227156283 -2.506017680304084e-05)
(-0.9984556571553546 0.0004178826123639237 -0.0003806575788205998)
(-0.9982997355580713 0.0004699231173487464 -0.0003549306206296145)
(-0.9984063279225036 0.0005256739455844056 -0.0004212091201605956)
(-0.9984596210316886 0.000475914578055991 -0.0003111112405512319)
(-0.9984166922241594 0.0004086154850631291 -0.000301980589023279)
(-0.9984849986955939 0.0004823483101169609 -0.0003867527983696198)
(-0.9983566126273971 0.0004639507765101168 -0.0004267828861368002)
(-0.9982295386261447 0.0001820223909978029 -0.0001194452210636975)
(-0.9981007785471366 0.000279115072530079 -0.0001312677708368864)
(-0.9980655963335037 0.0002023926193818846 -2.959923150094277e-05)
(-0.9982424184826939 0.0002531428289250756 -2.639688278462483e-05)
(-0.9982511709839162 0.0002522991238698488 -0.0001184310825695132)
(-0.9980757463198616 0.0002015708196787249 -0.0001326744311416343)
(-0.9982204743150543 0.0001826292539583557 -2.662011360854727e-05)
(-0.998342054546016 0.000172727757498706 -0.000413783208283263)
(-0.9982309449199664 0.0002604558228824772 -0.0004519839657268484)
(-0.9981629760065071 0.0001937521644334333 -0.0003831265304498975)
(-0.9983231382945967 0.0002420948369993209 -0.0003431456834853998)
(-0.9983537211027486 0.0002342444676491875 -0.0004077588691418913)
(-0.9983055579075142 0.0001761882241579107 -0.0003468668852905785)
(-0.9982087258697113 0.0001891849128172065 -0.0004577684334351528)
(-0.9977243068674407 0.0006763823807231211 -0.0001719447327570435)
(-0.9976115192237401 0.0008483355257737913 -0.0001872174915829548)
(-0.9975037031560111 0.0007609765158114448 -4.308868936528466e-05)
(-0.9977908962729958 0.0007626338811880034 -3.731541389104391e-05)
(-0.9978043392931654 0.0007590456542471461 -0.0001671290711025935)
(-0.9975198084029225 0.0007571297663680395 -0.0001929106520264323)
(-0.9977103112663236 0.0006796430006079951 -3.839486245002216e-05)
(-0.9981448952071206 0.0008447313845694912 -0.0005376473622572239)
(-0.9979377682742383 0.0009594114692745791 -0.0005006593149445963)
(-0.9979048000518189 0.0008689943604441051 -0.0006196668216017742)
(-0.9980025273019362 0.0008001375420254014 -0.0004660498294396131)
(-0.9980898045961007 0.000864006948871819 -0.0004500982883173139)
(-0.9980607706900644 0.0007822011658721958 -0.0005567109612405648)
(-0.998000780427764 0.0009368037139677921 -0.0005973216030056647)
(-0.9979099555305432 0.0006334349662450494 -0.0005902227800152697)
(-0.9976592449075378 0.0007238018860123796 -0.0005530231230240726)
(-0.997814960640006 0.0007919620131684283 -0.0006404220093657127)
(-0.9979208259580389 0.0007280191963205262 -0.000480815853347751)
(-0.997845836361924 0.0006482458146259421 -0.0004942637692346342)
(-0.9979821043267756 0.000711582483185358 -0.0005742928449812972)
(-0.9977325740522661 0.0007062054928697903 -0.0006593248551562379)
(-0.9975029616798931 0.0002799783206751997 -0.0001854062307790918)
(-0.9973092300170554 0.000434704915518369 -0.0002060053938227182)
(-0.9972466501886004 0.0003162428945503191 -4.664162319570626e-05)
(-0.9975262117960505 0.0003890552007326654 -4.088291169656752e-05)
(-0.9975414668698385 0.0003871246486534408 -0.0001830574030639479)
(-0.9972646919338578 0.0003145843127792569 -0.0002087781892725089)
(-0.9974874304306519 0.0002813807178588728 -4.140810401421383e-05)
(-0.9977088769559109 0.0002613087858914062 -0.0006345066284938696)
(-0.9975430716279261 0.0004045388766699558 -0.0007025360682614092)
(-0.9974208335457029 0.0003001959548580748 -0.0005974858495034538)
(-0.9976739282757631 0.0003703229608120688 -0.0005253401519600751)
(-0.9977439064558846 0.0003614753120172646 -0.0006267412410556986)