/*--------------------------------*- C++ -*----------------------------------*\
  =========                 |
  \\      /  F ield         | OpenFOAM: The Open Source CFD Toolbox
   \\    /   O peration     | Website:  https://openfoam.org
    \\  /    A nd           | Version:  7
     \\/     M anipulation  |
\*---------------------------------------------------------------------------*/
FoamFile
{
    version     2.0;
    format      ascii;
    class       volScalarField;
    location    "0";
    object      mag(grad(Phi));
}
// * * * * * * * * * * * * * * * * * * * * * * * * * * * * * * * * * * * * * //

dimensions      [0 1 -1 0 0 0 0];

internalField   nonuniform List<scalar> 
12667
(
0.3333223922101315
0.9999500146761361
0.9999141664942149
0.9998743172845109
0.9998284068729304
0.9997738392279107
0.9997072028522676
0.99962385824991
0.9995172980014697
0.9993780669515251
0.9991991051483243
0.3333218783686073
0.9999476430209272
0.9999099845158289
0.9998679443420844
0.9998192287068411
0.999760903236419
0.9996890412815765
0.9995981895884296
0.9994805270941958
0.9993245201501407
0.9991188114207068
0.3333216132050655
0.9999464184578284
0.9999078222475675
0.999864642184478
0.9998144587371751
0.9997541534697694
0.9996795162829436
0.9995846402693703
0.9994609518345348
0.9992955949003837
0.9990758977870002
0.3333226771757296
0.9999513293150757
0.9999164829625651
0.9998778435867506
0.999833478166983
0.9997809745022944
0.9997172009657682
0.9996379607578694
0.999537461942855
0.9994073994807069
0.9992411500660296
0.3333221755809927
0.9999490151677659
0.9999124065228937
0.9998716411180119
0.9998245644833703
0.9997684455482737
0.9996996696323773
0.9996132799837357
0.9995022659099191
0.9993564382195346
0.9991648942037394
0.3333219167709435
0.9999478204638693
0.9999102991552152
0.9998684278793537
0.9998199329325093
0.999761909662502
0.9996904776917764
0.9996002595158672
0.9994835673631332
0.9993291282737322
0.999124960902454
0.9987058221030329
0.9989103909397812
0.998663666068953
0.9987155304922923
0.9982668878522789
0.9983634973882718
0.9980909172433743
0.9981861881476314
0.9975964757327904
0.997838698262796
0.9977453307396624
0.9972916267450848
0.9974627229514091
0.9928352596904774
0.9973797736681206
0.9959223494370048
0.9921337207700857
0.997658027644777
0.9938160076739339
0.9975511347212511
0.9960641145658693
0.9916610008182898
0.9970276262441919
0.9958022107135333
0.9897765013518972
0.9972263849820571
0.9959489467956137
0.9912630865342397
0.9920154459722934
0.9892408492340702
0.9932037537467054
0.9899294270194983
0.9911617522016594
0.9885206489882263
0.9497714591230741
0.9906044287425778
0.9889314820623457
0.9571168188554885
0.9543565871676049
0.9489041597897907
0.9468710080112683
0.9882541720371447
0.9828313105862011
0.9480328745348082
0.9901294505492734
0.9836828954008667
0.9523638497225053
0.9983272402456086
0.9983802938193154
0.9986246505307618
0.9986137765864599
0.9983307163368086
0.9981240424379267
0.9981801981350451
0.9985123837955249
0.9985517100301099
0.9984866464024758
0.9975617888004237
0.9984191408281763
0.9987102490889068
0.9982182591075659
0.9985959763112148
0.9985450680313397
0.9981486716955026
0.9980397889847881
0.9981005803838671
0.9984790111211355
0.9984472740946233
0.9984865637772299
0.9985134065762712
0.9981395919186187
0.9985251159512074
0.9985577932924115
0.9976973116543136
0.9977834805244551
0.9981929795170288
0.9982522476445792
0.9976872002486499
0.9973502227084075
0.9974518878348396
0.9981244978102394
0.99818796893741
0.9979609538511767
0.9980268913644756
0.998290396630968
0.9975170834643238
0.9982273150879852
0.9980702199553856
0.9973958821563015
0.9972009122063762
0.9973092165398374
0.9979227910306696
0.9979900515954809
0.9978639823648446
0.9979337658434274
0.9973786139156968
0.9980336741263821
0.9979786517188695
0.9974955986504097
0.9975946417171488
0.9967440904609053
0.9968981318722389
0.996433106636769
0.995252711412701
0.9966130213393203
0.9955471147798077
0.9934444639959781
0.9947557303071349
0.9951060150964526
0.997484280705552
0.9970955604962018
0.9972135653796973
0.9963063528122375
0.9961166072593468
0.9965644851622607
0.9967285936777186
0.9956977949380313
0.9944205963248918
0.9940352456646
0.9962235834870484
0.9949113525628619
0.9964160169066011
0.9952307894790487
0.9902602239782707
0.9911352254496246
0.9928137188874447
0.9937678192373992
0.9933004415891491
0.9943502976618046
0.9947325703726009
0.9969959548926342
0.9967268947501711
0.9957311509609434
0.9953238576816622
0.997289018412377
0.9964265783548414
0.996832737406522
0.9946605689710509
0.9965377189600739
0.9954302413562415
0.9932268367339512
0.9940571654624395
0.9949699780937313
0.9971488731934872
0.9969222299567615
0.9970485341405404
0.9962041204399897
0.9960080590188959
0.9958385408673467
0.9960445328778987
0.9955696944021005
0.9942198137420952
0.9938178187173043
0.9953691600061506
0.9956142218603347
0.9934749034442124
0.9939030007787061
0.9907038450622861
0.9890216058004789
0.990010798636455
0.9935269982675995
0.9930379734308542
0.9926232922190239
0.9931457546061906
0.9971292493756519
0.9963283058837427
0.9961749452497475
0.9944700456893563
0.9957687963426111
0.9941695274013772
0.9906204973736512
0.9938296327441567
0.9934695348956102
0.9627472650351965
0.9677544668393717
0.9428712762068806
0.9324090350514951
0.9705849295207796
0.9744705783013128
0.9890635202079932
0.9873405747002026
0.9927555360672575
0.9901133999548313
0.9880156823860826
0.9872944596843979
0.9851937713855287
0.9806037598486691
0.9924017853819124
0.971035363078285
0.9846219694686996
0.9794043552420411
0.9912005075940405
0.9862644654393675
0.9937021412257293
0.9858206689477086
0.9809161592868215
0.9707157896509636
0.9466731209803189
0.9666467290260642
0.9939138007204086
0.9848833803003301
0.9767812246076673
0.990104454372558
0.9842475246220158
0.992685837995941
0.972431931558243
0.9864579974678096
0.988859631846851
0.9899626678956317
0.9919982820000653
0.9882798367879576
0.987168469241448
0.9845537308121717
0.9816806135748706
0.9863643469157216
0.9835976100857385
0.9784346804538224
0.9834289915384821
0.980135769937296
0.9721613620704899
0.9626515707173005
0.9801906795669352
0.9643116566972854
0.9828456900849259
0.9769328784925178
0.939973797586919
0.9699411613693693
0.9586647245967432
0.9924999170701032
0.9896301434371453
0.9853068565019659
0.9847957817892399
0.9842507814363858
0.9743147392379532
0.9832199276419415
0.9841961585537456
0.9724458978862629
0.9778893370091868
0.9684618179808493
0.9842459625229463
0.9411063896469788
0.9609970697036311
0.9148016263541132
0.9365221138960431
0.9115039034520459
0.8943354956429016
0.989427402987049
0.9873838192127289
0.9885660593606507
0.9840158915841578
0.9810385712019384
0.9785866265839785
0.982027345481983
0.97940498157926
0.9707664736977026
0.9607144298074299
0.9766197443447152
0.980584161816761
0.953340089050229
0.9654408868098698
0.9374847442226982
0.8885591693141562
0.8955628875141199
0.9683577526413452
0.9564103107188314
0.9478604183923616
0.9623191252538891
0.9893344027243258
0.984770030112415
0.9828776310458477
0.9730386360443306
0.9815578872736637
0.9681653691611933
0.9426537591440246
0.9710065458479678
0.9655145936345184
0.9355382535062825
0.9321306411836552
0.8873323128770098
0.8927513246605137
0.8875978997074522
0.9067949615749634
0.8887128259664309
0.8657628398657177
0.9386253587317228
0.9267560299434145
0.8918396954288983
0.9102764737727757
0.8813646885799657
0.8570021311182077
0.8870489293222219
0.8637733583130935
0.9515998658350961
0.9988198626943022
0.9988390539226513
0.9989665662508507
0.9989796548578703
0.9987362780338891
0.9987954557472564
0.9989212772461423
0.9988617831613468
0.9988761935813603
0.9988933967383673
0.9989102586837671
0.9988810805829965
0.999020453592271
0.9988105801355934
0.9989248013820929
0.998949077226613
0.9986454056163712
0.9986675823760511
0.9986861240809425
0.9988202163828558
0.9988093459835533
0.9988246184527272
0.9988354336841564
0.9987425924836282
0.998872390835431
0.9988824903370747
0.9983535763046224
0.9982761019768789
0.9982120754404088
0.9983955853029052
0.9984027166502062
0.9982211165784279
0.9983468395785877
0.9984558171654873
0.998299909255128
0.9984065551597293
0.998459782923495
0.998416821508293
0.9984851901043699
0.9983568116514283
0.998229562367834
0.9981008262058757
0.998065617293492
0.9982424509287636
0.9982512098923443
0.998075775492647
0.9982204913764529
0.9983421552386647
0.9982310812244578
0.9981630683390397
0.998323226622141
0.9983538318539528
0.9983056337154267
0.9982088487612713
0.9977245509519304
0.9976118974889244
0.9975039943538313
0.9977911884197741
0.9978046419989747
0.9975201143917881
0.997710543492409
0.998145397456619
0.9979383550491906
0.9979053708166066
0.9980029568711616
0.9980902800524407
0.9980612324683308
0.9980013988611047
0.997910331116858
0.997659660742692
0.9978154804477615
0.9979212073488616
0.9978461693388102
0.9979825232529883
0.9977330418305407
0.9975030182026963
0.9973093460325125
0.9972467014221678
0.9975262885034863
0.9975415587835603
0.9972647634051623
0.9974874709773973
0.9977091129370165
0.9975434010415325
0.9974210576772261
0.9976741353180221
0.9977441687821751
0.9976378943613715
0.9975032582859141
0.9942253133385712
0.9929410460052789
0.9935416063553651
0.9935574176907586
0.9936448345145215
0.9936354309812446
0.9941472026505307
0.9970365505859551
0.9973975554722575
0.997273273756131
0.9971380287966745
0.9972919153018877
0.9971586317700083
0.9970148903398419
0.9955312168527161
0.9958119167871005
0.9954862203458196
0.9960669635378594
0.9959611939314101
0.9956565750015806
0.9953549662229922
0.9925259497931996
0.991457188123177
0.9922523811970446
0.9929765045859803
0.9930734178905233
0.9915882733067097
0.9924197950434248
0.9976718109060361
0.9977718730458651
0.9977344531599772
0.997458884862075
0.9978439689494297
0.9975892088504342
0.9975467218816819
0.9951983751271664
0.9942456000300259
0.9944120416817895
0.9943707234235046
0.994875146273805
0.9947308207229407
0.9947945609506579
0.9973206303075041
0.9974528976211172
0.9976316958631138
0.9973361729799314
0.997537305568468
0.9972231287483898
0.9974290117977673
0.9960077609527332
0.9956542441104033
0.996232977004697
0.9962027889436527
0.9958171130361407
0.9963646470142998
0.9958536828106442
0.9934302413186612
0.992132193614419
0.9922674014119933
0.9925738457749375
0.9929638681945692
0.9930703191491967
0.992699720598851
0.9966934804276228
0.9970482629211351
0.9969754630372873
0.99672961078304
0.9969965271334243
0.9967537507165082
0.9966688065365359
0.9950945479582244
0.9956878753086373
0.9953443679205202
0.9957094104682501
0.9952081666399027
0.9955920442304451
0.9952345970623937
0.9908794020952324
0.989938985027251
0.9893980141532619
0.9910508018814851
0.9911799803808862
0.9895659526601609
0.9907459705853383
0.9970165928139029
0.9973197200808918
0.997178303248068
0.9969615137252185
0.9972735372560337
0.9970699563606888
0.9969057986844183
0.9956263437610905
0.9955186733679239
0.9961236696458809
0.9958600074988168
0.9957254868551224
0.9954137909055281
0.9960392817696231
0.9925291310017016
0.9919015260062838
0.9909482235779905
0.9922445262056356
0.9927666212839047
0.991986331370966
0.9916145607629516
0.943363155335746
0.9325869225915921
0.9507457261876365
0.9217244039102643
0.9882109645229474
0.9936790911895396
0.9928499751108969
0.989380291529647
0.9922461292296072
0.9921429099030002
0.9910881981536765
0.9928648913686658
0.9929778622058165
0.991235283345403
0.9921098405202249
0.9892927534655799
0.9881909868505826
0.9875966726139623
0.9901555016820992
0.9901508359519987
0.9905421341879963
0.9858814925829487
0.9939119733413683
0.9937183020316547
0.9925310256344514
0.9939103547507145
0.9943644646849167
0.9933713087192005
0.993149524547728
0.9920374778437792
0.9882847003357805
0.9911346007421883
0.9914334913301459
0.9910409468815663
0.9926997161882316
0.9904813391021506
0.9655544658994055
0.9669097380321983
0.972712366970395
0.9547772198615682
0.9941545661600639
0.9983802388088618
0.9971178267615033
0.9958807182314094
0.9848922551812607
0.9722488813618954
0.9792924033846561
0.980542077512118
0.9892044263127847
0.9903318504680405
0.9913082587475927
0.9900375611934349
0.9904953623259892
0.9902213715813626
0.9889982235543399
0.9809416975151917
0.9872014621649829
0.9865516373770949
0.9862097632844441
0.9846667469026552
0.9845898575518728
0.9833568424563003
0.9446434473583755
0.9628359087170276
0.9195596871051572
0.9577675974505644
0.9592307526374662
0.968176135185514
0.9455150399539259
0.9909482334771464
0.9911779315844874
0.9913517372170726
0.9893572207891734
0.9918746920084685
0.9900789186554094
0.9903060150739436
0.9886235551712759
0.9873018297160079
0.9902016300389508
0.9868705583237406
0.9897006019583685
0.9843111571469386
0.9889154772812001
0.9782986878302027
0.9685976750743309
0.9802276383587732
0.9800793296046403
0.9639610633021388
0.9718099638698051
0.9768265729450508
0.9707687564094487
0.9644629369447707
0.951329512189222
0.9590420175647891
0.9668755539091488
0.9580740275258935
0.9663971826228445
0.9364284259844261
0.9455533192624822
0.9538322024472398
0.9344848345612982
0.9427426383625876
0.9530383736101534
0.9262983639517262
0.9154423020808365
0.9433011432065279
0.9417376307503473
0.9319427212904697
0.9232768340669956
0.9252763540651054
0.9374170380787742
0.9861654546443477
0.9884621410686592
0.9877649957868806
0.9864864072540719
0.9879914118310742
0.9867433500855407
0.9858312312902578
0.9729361785701088
0.9807174561690931
0.9785570293738617
0.9814171599132001
0.9753197761420678
0.9791032218649025
0.9765258516386826
0.9384324052850453
0.9165110545894322
0.9004815982162574
0.9336832880290071
0.9565915434472944
0.9425521397781164
0.9502720748274377
0.9893142580927724
0.9909079373435478
0.9897402800973752
0.9890139927287636
0.9905580315051566
0.9897558413201554
0.9884059291846059
0.9838047829965525
0.9798274286676477
0.9860279826504769
0.9823452716906195
0.9842498336618464
0.9779319639425024
0.9853615366255865
0.9747787815333663
0.943533359637151
0.9711246068872195
0.9616482354753969
0.97535566189444
0.9561524317906881
0.970555149146211
0.8894196422606148
0.8491471712467578
0.8587806913024223
0.8725029406222211
0.8446626854647885
0.8797716148338403
0.8675292364318994
0.8590100100554952
0.8914423274611951
0.9262030566118211
0.9141208432930616
0.9071619432675749
0.8230398501527436
0.8377054322770368
0.8488618625663734
0.8166131262437615
0.9984918679695277
0.9983967519807483
0.9983364077304725
0.9984395754456382
0.9984459832447731
0.9984062994085735
0.998483824995467
0.9985130625589664
0.9984457121727653
0.9983536502804153
0.9984834375702729
0.9984649344128625
0.9985237362692486
0.9984271666951994
0.9983689532845444
0.9982956955877357
0.9982670099694243
0.9984895906946227
0.9984197619157162
0.998388122588648
0.9982396296839005
0.9983122961520504
0.9981642163274791
0.9981336338567901
0.9982715961982378
0.998279949950327
0.998173397261751
0.9983050374647527
0.9983272392223791
0.9982184374705776
0.9981525607401986
0.9983175674329902
0.9983428689495821
0.9982962994770689
0.9981917250118278
0.9984354611594142
0.9984074620399135
0.9985193452921024
0.9985265600509382
0.9985297023967613
0.9984155843968183
0.9984310759465659
0.9984513802668361
0.9984451675366806
0.99853968919923
0.9985188708002767
0.9985543500580529
0.9984256947463945
0.9984327088115509
0.9984705287319394
0.998418242312758
0.9985802025412248
0.9984511751223102
0.9985842835090932
0.9983955131810606
0.9984687006859952
0.9984858321938301
0.997894419351578
0.9985825339745802
0.9985172246280943
0.9986081082393276
0.9984112206121776
0.9984355032729638
0.9985762120989099
0.9984746280446383
0.9984563943489809
0.9985232361928441
0.998558519929851
0.9985472358852374
0.9985042269609835
0.9984827643962066
0.9982581784162887
0.9982649042512
0.9983508556347942
0.9983829422911719
0.9983864730650773
0.9983163985943009
0.9978422405619498
0.9984769412788123
0.99856780717372
0.9985793257344791
0.9974720654345021
0.9984380863338759
0.9984256373040744
0.998247283376598
0.9981203191090547
0.9981249365255704
0.9982913926189432
0.9982683407593532
0.9982723136678924
0.9980957605451416
0.9982144743993006
0.998048432350975
0.9980501758337762
0.9981977646114956
0.9980587434550217
0.9982052774098803
0.9982070305524056
0.9982324909089766
0.9981087294835059
0.998070633228223
0.998251229678516
0.9982581791763717
0.9980790447449811
0.9982251802824782
0.9983691348104118
0.9983790481443817
0.9984672651509661
0.9984853952271613
0.9984738437029933
0.998387092536772
0.99836059269899
0.9983547561880173
0.9983400273600651
0.9984511858107978
0.9984537781589858
0.9984577063312987
0.9983462825268608
0.9983485791891743
0.9983716676844475
0.9983874263278743
0.9984724782511143
0.9984901596465812
0.9984765139606099
0.9983929920880432
0.9983654267177822
0.998386074879164
0.9984192455575934
0.9985051507266532
0.9985071896699705
0.9984925610732386
0.9984042247703618
0.9984074108724128
0.9983305689509361
0.9981474190899872
0.9981864613709508
0.9982857578416497
0.9982922886354879
0.9981938516863682
0.9983252616994864
0.998452641070563
0.9984209935269815
0.998529450235614
0.9985444315882055
0.9985443022176642
0.9984266584054028
0.9984511556302637
0.9984647049902519
0.9984513277004503
0.9985471166862446
0.9985266188765926
0.9985659558628055
0.9984348465950077
0.998441124445564
0.997985713176742
0.9978048719810431
0.9977119640747342
0.997879346153847
0.9978921628782569
0.9978187048717163
0.9979735877110917
0.9980096385140363
0.9977409145763041
0.9978862058268869
0.9979546914130308
0.9979174815802592
0.9980447258666495
0.9978460316484401
0.9981377810545682
0.99804396321721
0.9982672645100095
0.9982030993908041
0.9982770790265197
0.9980552760685412
0.9981270303734796
0.9981589205065126
0.9981103598874161
0.9983224934104977
0.9982230014497647
0.9982964047922088
0.9980776035739629
0.9981895114459797
0.9977522719879693
0.9976423767064073
0.9975988522094642
0.9978704250859731
0.9978312553006415
0.997793110088249
0.997551978908114
0.9976532428936769
0.9974214316847262
0.9973674985231014
0.9975769963061784
0.9975919122876882
0.99743817176259
0.9976387499560463
0.9976819276403744
0.9975199520678769
0.9974016473841034
0.997664930798461
0.9977242146582466
0.997621427453957
0.997471263874845
0.997908075863156
0.9979664910749504
0.9981349807990669
0.9980623589924361
0.9980730090990945
0.9979783182721654
0.9978958538221541
0.9979323267013434
0.9980364316172738
0.9981560818175931
0.998125885691372
0.998094299662149
0.9980017876893233
0.997968142664888
0.9978457845771713
0.9977795325398108
0.9980075873159404
0.9979721017091945
0.9980184490729245
0.997792436336676
0.9978332112522867
0.9978707183632518
0.9978557718596737
0.9980721394448689
0.9979941931307875
0.9980400525933419
0.9979075989477858
0.9978179995074399
0.9982771050287587
0.9981527935543164
0.9983568422701616
0.9983347626582818
0.9983972721433879
0.9982292231765277
0.9982037520253054
0.9978458178460848
0.9975831339175892
0.99759577002259
0.9977215346998662
0.9977792436028877
0.9977900202904607
0.9976593838157464
0.9980715459388262
0.9980810610804755
0.9981668349707382
0.998275108344793
0.9982192270843908
0.9980147508381644
0.99813493952363
0.998014791652458
0.9979051720581547
0.9981152399552197
0.9981231972856721
0.9981694133245007
0.9979559297940239
0.9979651656264487
0.9975337640143571
0.9973443670745937
0.9973529540442674
0.9976162647111195
0.9975717648386671
0.9975790405905098
0.9973004575596142
0.9974769439680331
0.9972162735071151
0.9972193264878191
0.997447954428419
0.997234569255412
0.9974612063129263
0.9974637890848703
0.997508061460981
0.9973238875717045
0.9972557123976787
0.9975411820476928
0.9975538736460308
0.9972707224171695
0.997495096164929
0.9977153634199624
0.9977355548745753
0.9979342053412252
0.9978936402096376
0.9979052745924181
0.9977487480348858
0.9977019374234768
0.9977419215283246
0.9978133820727464
0.9979567762947429
0.9979621079453372
0.9979282635163214
0.9977748598576585
0.997781064026825
0.9976927956341991
0.9976677444484657
0.9978739223164699
0.9978758452066744
0.9978857080941979
0.9976792075277364
0.9976814155972434
0.9977196674855328
0.9977482650029126
0.9979432552485361
0.9978992815120125
0.997908992378723
0.9977592528029163
0.9977084490976919
0.9976854295512709
0.9973928499974559
0.9974623660488705
0.9976010598531906
0.9976134049966973
0.9974760814329353
0.9976734940745239
0.997893911972786
0.9978636360472967
0.9980867768270357
0.9980062671899113
0.998059923434984
0.99792464996025
0.9978320475176494
0.9978732394408898
0.9978000646379686
0.9979878788368449
0.9980330622260722
0.9980420077008266
0.9978107702203689
0.9978628525890175
0.9974315351759577
0.9976188333908552
0.997512449072912
0.9972715821194855
0.9976347020889543
0.9972910488889001
0.9974132588798297
0.997467618909049
0.9975457319429475
0.9977121262163355
0.9973858874577074
0.9976660493021487
0.9973294760503773
0.9975206071877969
0.997206804041288
0.9970222404991744
0.9969332987813997
0.9967703976601928
0.996957810492988
0.997044823577044
0.9971856777759195
0.9972484830071804
0.9971546728187041
0.9970768819050383
0.996822239700724
0.9970061256031926
0.9970893672645514
0.9973096100377459
0.9963744535929677
0.9966529570927198
0.9960846284698001
0.9964638839034908
0.9966815073864919
0.9961207975379223
0.9963410638780406
0.9960327722568191
0.9956058506900822
0.9956932529211944
0.9953033893198455
0.9956521142241679
0.9957359597435103
0.9959935564118843
0.996440130176005
0.9968199254859049
0.9965244727975997
0.9962956687742857
0.9967377270491261
0.9961919196382886
0.9965359824026048
0.9961098141137683
0.9958747852505136
0.9954027735869388
0.9959419238673658
0.9957428782743525
0.9958198307533599
0.996222028501177
0.9943778854153043
0.993147794333923
0.9940818232439746
0.9940612355744244
0.9938155096939559
0.9945977891343679
0.9938186315231528
0.9947539740114769
0.9941938779698966
0.995172801786416
0.9948161823806653
0.9952276320347827
0.9942663811838206
0.9946886826415213
0.9948816799997403
0.9946128320390184
0.9954907562267343
0.9949345498644819
0.9953350432395983
0.9944081154941441
0.995066303598689
0.9970792968520316
0.9974326766887963
0.9973828280562569
0.9972589764141301
0.9973287337268968
0.997199296084137
0.9971420203581849
0.9969270216327814
0.9971779582563427
0.9971156430084209
0.9968086812850114
0.9971973714224679
0.9968321297960768
0.9969044059148805
0.9969716492277113
0.9972920410430166
0.9971553035202073
0.9969462657847831
0.9972357124864974
0.9970371227924039
0.9968783967024106
0.9966747696005037
0.9966455971174902
0.9962129342845516
0.9964296765855797
0.9963399711495146
0.9967512262600315
0.996566165526684
0.9966225789888263
0.9964844238997473
0.996149048268495
0.9962474965471231
0.9962786374779459
0.9965119343573003
0.9965961065828304
0.9967499971541242
0.9968676624421259
0.9963978449953543
0.9965925213141433
0.9968916422345935
0.9964275052466187
0.9967247110072911
0.9967998556157636
0.9970082429038122
0.9965714075459741
0.9966477588466649
0.9969389322292878
0.9964859318270021
0.9968729117500041
0.9954451802088229
0.9957362573902061
0.9952189945649148
0.9958519226050696
0.9958887467638126
0.9952648588469374
0.9954013947655249
0.9950414023965131
0.9949891581864415
0.9942318872348513
0.9946604438744758
0.9944813790019873
0.9951907926546498
0.9948322578590558
0.9949386408230767
0.9946692710911232
0.9941017051057143
0.994294856110236
0.9943578892891753
0.994724298562063
0.9948862711622118
0.9956511815468708
0.9960284919568766
0.9958391790985981
0.9962565151709023
0.9958780505988071
0.9960634560907403
0.9956097490302286
0.9951827390339728
0.9945894518249201
0.9954044565208624
0.9949663736924165
0.9954505766633454
0.9946486313311146
0.9951333682904565
0.995732611375589
0.9962327311478159
0.9963213297433376
0.9960658863402886
0.9959544656822972
0.9961322562544092
0.9958512971520233
0.9952796385201431
0.9949328417336167
0.9950742334468854
0.995672863367566
0.9955411219374611
0.9947646027320652
0.995420560947109
0.9920182468440808
0.9908282640698637
0.9904136480693334
0.9914416931079062
0.9915643748841365
0.9909710165656969
0.9919034089949976
0.9922416497718148
0.9907111379232498
0.9916401092685339
0.9921452144533928
0.9925617186321244
0.9918030713070892
0.9912478348164241
0.9927326325676249
0.9924832564469607
0.9922058281686715
0.9935339351948732
0.9932623394730934
0.9930292906779392
0.9918427612223542
0.9930981280038291
0.993015500649875
0.9935393635979483
0.9940546026754921
0.9938386500144419
0.9933602299370243
0.9927369814446609
0.9929161599439326
0.9924444266720767
0.9933812882865605
0.9936128876383858
0.993689275523691
0.9925435648654318
0.9928228916267966
0.9933354629919632
0.9937098939250972
0.9939660658388657
0.9944163219653508
0.9937896180871091
0.9940374564394679
0.9932487424827011
0.9935047397614111
0.994170056314153
0.9943791150165807
0.9945455342115702
0.9939453470349183
0.9941771065500936
0.9937487674246267
0.9974834938281679
0.9972390248329205
0.9971681336775881
0.9971130785217386
0.9973886041577233
0.9972774633451446
0.9973402860209906
0.9968055429064595
0.9969256953288569
0.9964287487108193
0.9968628385505273
0.9966590150039749
0.9970520590901988
0.9965871102359098
0.9965361439408383
0.9960431138189715
0.9960980885691657
0.9959485047833466
0.9963656666187155
0.9962421297484522
0.9962832580494512
0.9955742335365523
0.9948718733433038
0.9956887843902957
0.9955800030719396
0.9953001942383556
0.9959219161285151
0.995174957331616
0.9972234865296677
0.9973649981451235
0.997379882340914
0.9970339903026205
0.9974528670230146
0.9971217673701263
0.9971393844858856
0.9969681190851207
0.9967480545238691
0.9965702376669133
0.9965451580754624
0.9968498713361351
0.9966832014775284
0.9968708322240886
0.9970802674122325
0.9970977289836115
0.9966814837572691
0.9969573525797157
0.9969671985673405
0.9972050926608702
0.9968131265970974
0.9956071518698738
0.9951893857882546
0.994943059334898
0.9948882703345497
0.9953815201483288
0.9951566400858662
0.995426121857359
0.9961840530674994
0.9963618104596388
0.9962087196558479
0.9966829101642571
0.9960033614323581
0.9963785579611442
0.99651570985642
0.995813672657054
0.9951470263834299
0.9958412522241393
0.9956655717607042
0.9956005736318373
0.9960407443648684
0.9953995196183774
0.9938349750871107
0.9926600732796071
0.9937038385042672
0.9938755718194172
0.993402214304354
0.9942725236485392
0.993183494250607
0.9940767139215494
0.9933665758899675
0.9943961115032779
0.9943282977951178
0.9936909833185241
0.9946491671888924
0.9937755885618647
0.9944167048192635
0.9944540936172251
0.9946353215871823
0.995248819748402
0.9940569589843488
0.9947860082755254
0.9949359473463405
0.9967421584088235
0.997089014717856
0.9970992079553712
0.9968712347096597
0.9970381200746672
0.9968013782198913
0.99681354878258
0.9966525742961714
0.9969400957530697
0.9969437322509935
0.9966066764900678
0.9969614507637508
0.9966275368401631
0.9966318980249957
0.9967019674251448
0.9970655398972009
0.9969861872158228
0.9967546160353126
0.9970036160217327
0.9967744017854729
0.9966816532132564
0.9964070952310617
0.9965582062614068
0.9961076021945812
0.9961252837044166
0.9964762981221368
0.9960263625901564
0.9964909192396469
0.9963498506838238
0.9963919932008013
0.9960415853797085
0.9959243264936122
0.9964203680103898
0.9959586940980253
0.9963208071044026
0.9963019378868219
0.9962479742451342
0.9958673685220782
0.9958737734541618
0.9959023101388558
0.9962724384537934
0.9962777046204377
0.9963600783724993
0.9964220903486883
0.9960716667813997
0.9959431404283481
0.9959711057436833
0.9964452082020896
0.9963362989961698
0.9949983731179384
0.9956095276921405
0.995067037967964
0.9954707123826835
0.9951146450266477
0.9955116096163422
0.9949494127855346
0.9945221844569276
0.9948208334659404
0.9940229679292906
0.9940638027816517
0.9946576151679953
0.9938606196256925
0.9946903221890182
0.9944064636658796
0.994488029652707
0.9938871535841499
0.9936488899936056
0.9945452879770829
0.9937204413714469
0.994347475515897
0.9949190918116327
0.9954033014754293
0.9954111519266909
0.9948285591806743
0.9954449250860516
0.9948692080699271
0.9948789110924002
0.9950170783798462
0.9956462219127261
0.9954937345445878
0.9951218297906014
0.9955267849674557
0.9951597579220322
0.9949778159289439
0.9943116897451938
0.9935334655633631
0.9942028655492744
0.9935487120504063
0.9936065095709349
0.9942515249494268
0.9942636272425096
0.9944297225762823
0.9939571401906152
0.9945560315178791
0.9936933201219336
0.9937496380465342
0.9946012218898661
0.9943828290746665
0.9911406346367692
0.9902541767462437
0.9903642325139097
0.9917925080800664
0.9914316059010213
0.991516023232703
0.9898947188310309
0.9906748438088503
0.9891569772614702
0.9892020112136642
0.9904352646871801
0.989312621383038
0.9905408699406207
0.9905739327582126
0.9909411220623918
0.9901301001222503
0.9895230284424188
0.9912293386449673
0.9913259797939784
0.9896473252471841
0.9908403931433697
0.9921947326197895
0.9927249686493484
0.9932879566230685
0.9933394283127466
0.9924324886635145
0.9930921512037285
0.9924980393136035
0.9919843625133207
0.9921253986508901
0.9931225523241366
0.9928337049610827
0.9922294213052503
0.9929211124839922
0.9918767981725102
0.9918169653321683
0.991621294476388
0.9926941291893787
0.992713555605655
0.9927833799923393
0.9917073961184111
0.9917324931481356
0.9920318661321037
0.9922632807891656
0.9932109921498297
0.9928901325872795
0.9929581432470702
0.992342387655847
0.9919493049463842
0.9969803862396143
0.9971457110216752
0.9972264229672482
0.9968488855893833
0.9972422335321645
0.9968679926847795
0.9969620883542668
0.9967284684154939
0.9966638369024384
0.9964766518800811
0.9962525387615049
0.9967903848780161
0.9965990044155003
0.9964045173232565
0.9966864172976108
0.9965326957341877
0.9962010169171239
0.9963306599771066
0.9965549661960671
0.9963554746705799
0.9966651533368019
0.9951581465591455
0.995029056730242
0.9947644564347569
0.9943220509453635
0.9952751358014225
0.994904779861794
0.9946257852857595
0.995558777400488
0.9957994575710259
0.9953060662110149
0.9959527598420959
0.9953422963984183
0.9959818425446615
0.9955245421533098
0.9950783109865984
0.9942208807722477
0.9947769262403251