/*--------------------------------*- C++ -*----------------------------------*\
  =========                 |
  \\      /  F ield         | OpenFOAM: The Open Source CFD Toolbox
   \\    /   O peration     | Website:  https://openfoam.org
    \\  /    A nd           | Version:  7
     \\/     M anipulation  |
\*---------------------------------------------------------------------------*/
FoamFile
{
    version     2.0;
    format      ascii;
    class       volScalarField;
    location    "0";
    object      p;
}
// * * * * * * * * * * * * * * * * * * * * * * * * * * * * * * * * * * * * * //

dimensions      [0 2 -2 0 0 0 0];

internalField   nonuniform List<scalar> 
12667
(
3.66081801370635e-05
3.526704480537922e-05
3.376392126060409e-05
3.3129300404892e-05
3.441076184048135e-05
3.884620397115335e-05
4.809247282672573e-05
6.45802540284183e-05
9.216164377658914e-05
0.0001376307723905362
0.000209651083472087
3.379603168325146e-05
3.197131274231028e-05
2.954681879704132e-05
2.7529958873987e-05
2.687976248382165e-05
2.867646877176037e-05
3.434041969620783e-05
4.59746775604063e-05
6.696041688302339e-05
0.0001029357573625704
0.0001559716479067306
3.222169594119287e-05
3.013410093545022e-05
2.720571526869218e-05
2.442680887350946e-05
2.270101865052784e-05
2.301050232256973e-05
2.662246744829383e-05
3.540175672168031e-05
5.232532039841208e-05
8.235119584700211e-05
0.0001261262954912811
3.789445514875407e-05
3.680340506950513e-05
3.577262050118426e-05
3.583903565037799e-05
3.808698800355946e-05
4.381833079830547e-05
5.477402318997114e-05
7.346941597557922e-05
0.0001038447019190379
0.0001531550445833397
0.0002334932203537491
3.523916945454154e-05
3.369287733678389e-05
3.179869221378118e-05
3.057836300605413e-05
3.104420010971154e-05
3.437115528963614e-05
4.212362737055692e-05
5.661853366506841e-05
8.160401260155982e-05
0.0001235618686401071
0.0001874044335093263
3.37475709279723e-05
3.195358610763454e-05
2.95866818422966e-05
2.765597284494466e-05
2.712794788037897e-05
2.909803424343576e-05
3.501522162304246e-05
4.703712642989669e-05
6.864015577819554e-05
0.0001055596720464228
0.0001599542023054604
0.0002486901375323032
0.0002902118828307948
0.0002188146094926704
0.0002548520384645215
0.0004677612852503044
0.0005137144600990701
0.0003590646472261988
0.0004274133363645916
0.0007498197636292718
0.000878024930070651
0.0008322486464425875
0.0005569524922772915
0.0006723724106481785
0.004243428831987866
0.0008469786228447875
0.001274522299271017
0.004072762741146123
0.0009895350585589903
0.004434763718085397
0.0009396004099967933
0.001355478443031873
0.004030657939043312
0.0006279995548525793
0.001206834446894618
0.003167431132558367
0.0007611629120227429
0.001294925079078741
0.003908765542846864
0.004988434245771061
0.009540282825199926
0.0051695626875092
0.009509936626440249
0.004818966423701032
0.009580035290400002
0.05547955650461119
0.004808625869620165
0.009613134101135347
0.05075287330794914
0.0564952349479314
0.05854757973374881
0.05994737018605981
0.003811507896340972
0.009445968447974658
0.05664444153026155
0.004667129394371233
0.009674541358079457
0.05502154395245348
0.0005107538873522394
0.0005278938580714221
0.0004247315404729183
0.0004475897807397657
0.0004575327781642783
0.000384168950559975
0.0004228480967336029
0.0002828788039327013
0.0003221128780107655
0.0003799300459659603
0.0005033360426394022
0.0005551668794987559
0.0004654441532793927
0.0004446917480000274
0.0003481302650216955
0.0004383549280614521
0.0004020745624177565
0.0003188034479635675
0.0003666365990101491
0.0002638428015145362
0.0002339372774111994
0.000267832942730565
0.0003009563382520293
0.0003962423162202984
0.0002892376465222455
0.0003243334280815256
0.0008058884412098612
0.0008508448059648021
0.000569383003937404
0.0005971765624784067
0.0008010578476670963
0.0005967362470786498
0.0006642403234564143
0.0005271913242205415
0.0005543767526448545
0.0004252828738533078
0.0004679706764097745
0.0006220791002837755
0.0007053335741455457
0.0005829401894298299
0.0004935227779505975
0.0006287578455088455
0.0004925610819058118
0.0005714434932249577
0.0003981333978840047
0.0004451520833732155
0.0003539533988552923
0.0004069940878533429
0.0006192754350481099
0.0004731016601216636
0.0004392581551200929
0.0009093135206602641
0.0009595868374744737
0.001329410839992189
0.001399439070347727
0.001518222194536865
0.00230736154574327
0.001596232118939587
0.002412942660846821
0.004379208742594958
0.002671728047744056
0.002786988622415698
0.0009048939506378322
0.0006735773148120905
0.0007514960926389478
0.001110511914788814
0.0009902887881715987
0.001243253211481782
0.001326717954228525
0.001134917107273291
0.001977940740450894
0.00175526992914528
0.001422372952724483
0.002177763453551327
0.001516709889000241
0.002313363009955122
0.003389651751664529
0.003815599938091678
0.004279728414193165
0.002312206069640488
0.002050524536689217
0.00253003627161894
0.002682354901770627
0.001439650321652785
0.001640332232556977
0.002468620947757018
0.002845616510119028
0.0007984898635288333
0.001180998027305252
0.001375032201315456
0.002101598742050702
0.00157057783060567
0.002386477394690398
0.004373711705601317
0.002454723943368362
0.002762236253527454
0.0007110628301630678
0.0005539950723662079
0.0006453985657316267
0.001051039037834504
0.000921235209579472
0.0008074376868671091
0.0009527000207375199
0.001055314075146773
0.001878285254918879
0.001631831766321734
0.0009233791512592554
0.001094175122194851
0.001423308478918265
0.001708310605643463
0.003658520863131422
0.002761606740300967
0.003377789654826998
0.002199246624710807
0.00190712731921234
0.001663077499728639
0.002004470435614792
0.0007005373585792434
0.001127303525223442
0.001038295221215941
0.002015761853543797
0.001193833500812146
0.001868556393982318
0.00368706491092327
0.002359179759384492
0.002193330150253716
0.04799338873057218
0.04484428464226609
0.05598374613756566
0.05812260258850032
0.04308571368852047
0.04008553297959576
0.02629182946040306
0.02834855701505202
0.00512351098232531
0.008388243063164418
0.008749330635462705
0.009541653111460335
0.01724267524301043
0.01836002316981879
0.02051261298870525
0.03965719134634581
0.01872048973564411
0.02024036376522129
0.008305622389446019
0.01682538881846052
0.01880790266241091
0.0181872487562506
0.03459339920746109
0.04280550814914616
0.05521550902554351
0.04639376799891022
0.01997705784455504
0.0306830206178728
0.03819042457026604
0.02500861172373598
0.03140611967619411
0.0217189939567107
0.04238606778329394
0.02970734821153566
0.00406282104981117
0.004549738001644649
0.005040132849523831
0.008912266615569641
0.008659777375642079
0.008579559430440021
0.00748765893771508
0.009488730249392023
0.01789326710029303
0.01875739613046136
0.009520623993591595
0.008313296580105397
0.02066298927523932
0.01860843287973872
0.03311326788156915
0.04338819433204506
0.01953247722193124
0.02078233415302192
0.05390287768461452
0.02324186103238387
0.02111357350127351
0.005132483071634152
0.008513769104899515
0.008793863463291886
0.01750864179644462
0.009732801120182155
0.02071168691570243
0.03049729893423009
0.01902851043236956
0.02319553721883108
0.03982163655122907
0.04597761938532979
0.03236073577551472
0.05678127498606376
0.05019806926373819
0.06597665094410302
0.06803772838529915
0.06712632395037597
0.07431233737947718
0.004390179530517474
0.003328246365481874
0.004087831525306801
0.00850429007797346
0.007275042207039648
0.006381299146768682
0.008117992713552537
0.008091733678662038
0.02086345282845594
0.01837731599126946
0.00713768565415735
0.009080880382974062
0.01741817204858563
0.02154909715129326
0.06463404750271164
0.07097250761538861
0.05907397879148464
0.02354614224081179
0.02091057033981965
0.02011549684908922
0.02465432429312179
0.004447923500627515
0.008718637468556431
0.008447173677489095
0.02097881369326417
0.00942994703304028
0.02192053619609194
0.06275999098822768
0.02357204176104956
0.02495277722864557
0.0688667480408911
0.0718580334554884
0.07819159254212051
0.07512557358279798
0.06399921617065199
0.06699593159865878
0.0737789479597212
0.06839907728767257
0.05741854357201512
0.05911792576778496
0.06346794947756292
0.06593863879191665
0.07756296851398291
0.07151536888972893
0.07456604085806154
0.06901610783066456
0.05790710645530395
0.0003374715030794128
0.000349524212014459
0.0002655145168474184
0.0002734463087522797
0.0002636084852562819
0.0002861644286047867
0.0002965618451090861
0.0001955839911203258
0.000203054769482126
0.0002229199830513281
0.0002242614684021775
0.0003713274567284221
0.0002929482706308542
0.0003323409116349713
0.0002151885593106031
0.000256503260029901
0.0002035010005242422
0.0002208905779538779
0.0002353808720587307
0.0001760132565776027
0.0001644349255046442
0.0001771194554680736
0.0001870459087461096
0.0002676665607046165
0.0001996871106771646
0.0002060002850258201
0.0004162005472929589
0.000469960425328298
0.0004424025842870098
0.0004257086879176607
0.0004285350307354153
0.0004472560032822787
0.0004094309302280278
0.0004592127196358079
0.0004886452262489343
0.0005443421305272593
0.0004659520285530419
0.0004532264928500852
0.0004952743882460345
0.0005071569561466622
0.0003138377889718059
0.0003668171107483865
0.0003394562178970947
0.0003244015822928194
0.0003317845689932039
0.0003475416766371864
0.0003063674333315197
0.0004085174090824203
0.0004500917152370177
0.0004132684129104424
0.0003952643450014813
0.0004159272776231534
0.0003785323619011614
0.0004426132385965148
0.0006253877918200208
0.0007587355724200193
0.0006949698175167945
0.000665562005831618
0.0006732876177338442
0.0007048998681139822
0.0006168472124710265
0.0008461344364872264
0.0009223235450964794
0.0009088213332403887
0.0007811372446406026
0.0008223705823595407
0.0008095331093936452
0.000948122865054574
0.0007336486225428994
0.0007869053580752713
0.0008678360419554725
0.0007388419327855422
0.0006973506448329067
0.000771439325967703
0.000826931772141937
0.0004797965049292845
0.0005694869904930869
0.0005255324912082268
0.0004958634882154418
0.0005066915263151127
0.0005386733061544968
0.0004684248043263789
0.0006189064167048492
0.0007225126574696704
0.0006464323932740335
0.0005957617662906252
0.000639509831814398
0.0005732026011763714
0.0006988824659497541
0.003761483899444572
0.004270650311257587
0.004360168858004385
0.00362290695745271
0.003648615114268308
0.004376086395959398
0.003745152853299067
0.0009032421343829817
0.0008571366336044607
0.000785314747530617
0.0009595278588601239
0.0007967277742341096
0.0009710634457042969
0.0008901686283364781
0.001486660536174038
0.001207586766851469
0.001468908635531908
0.001351563870419415
0.001291348474559192
0.001555988708818746
0.001391234224406858
0.003312581029816188
0.003860667827724278
0.004113436441450608
0.003459211643378193
0.003495448255303612
0.003914805536746719
0.003265554159062735
0.001200196291147836
0.001037430472513576
0.001023193460479723
0.001118213613395129
0.001065431979781565
0.001169941967245046
0.001155040819759767
0.003872859703554962
0.004471876579506207
0.004453045969094145
0.003814336539780024
0.003855449418692423
0.003862555551708868
0.004453831714872836
0.001058255463583927
0.0008896882534656422
0.0009788217115980619
0.001063656830478705
0.000934194553813128
0.00100858441699319
0.001107026532437332
0.001728470047598689
0.001562040890714918
0.00144446289951872
0.001424208739816593
0.001638862362989676
0.001503758820555781
0.001663201960948571
0.003674043939313338
0.00415962465563424
0.004237918399536211
0.003399166974168425
0.003521134151566657
0.00358518474583913
0.004324829441722858
0.0006870383719432426
0.0006425393040405315
0.0005919167151337357
0.0007107912065355853
0.0006071694431206197
0.0007276860084543141
0.0006692786693565921
0.001238864807775473
0.001134131565194634
0.001391854771770585
0.00115229338520254
0.001306984840606507
0.001075025747088122
0.001329445943388453
0.002577475818630452
0.003260953107035741
0.002976321137147118
0.00265459628993886
0.002732215801008429
0.003082553001288964
0.002491600198071901
0.0008995709440108236
0.0008183347556661193
0.0007316074571337823
0.0008644994792022627
0.0007916083681862492
0.000929653505077568
0.0008309465532627254
0.001557501566124579
0.001493834750995531
0.001392008232433644
0.001246034189091605
0.001604959151046842
0.001438456782942222
0.001349532476257482
0.00342559468680966
0.004150700087356723
0.003804180466171327
0.003284856000055137
0.003499342748899362
0.003187504334987904
0.004074057490618875
0.06721243642503466
0.07225631452469741
0.06274023960874178
0.07623932921103931
0.03167565224487259
0.02432835354816538
0.02559393055964219
0.03008817803579149
0.005977056852745135
0.005017741925036834
0.005873647023800293
0.005091395507116583
0.005106478095899838
0.005920689525602098
0.005962913786116671
0.01170003157419116
0.0095559870782856
0.01230223428764436
0.009168348675253488
0.009268475354504247
0.01125820236446845
0.01251161447594393
0.005906640215494313
0.005187342762401621
0.006040638087981739
0.005152191163762134
0.005127538336328803
0.005968822005711197
0.00602691875046206
0.01006486159280292
0.01216388343908211
0.009531619061804598
0.00936361495608865
0.01110443480613684
0.009005189347892769
0.01149365652908513
0.05175955753959785
0.05190394884607704
0.04690428345901237
0.06090056715911101
0.02331210122829381
0.01670707716118815
0.01885461733210864
0.0206831801520487
0.0352633866121945
0.0488287507445845
0.04103950656833933
0.03984972923717168
0.005571639433368369
0.004592716705164923
0.004864561738118635
0.005729059348277768
0.004654651864339615
0.00577752676203537
0.00549955283220632
0.01274627749200688
0.009566624329810947
0.01254348019931166
0.009738127922964374
0.01265235966179164
0.009428414859400606
0.0130047555083057
0.05192430142654236
0.04574013920252103
0.06118230116163156
0.03559077210581491
0.03762701445605663
0.03376423790837712
0.03805307872369503
0.006056651235250625
0.004940556282556506
0.005035549767354745
0.005787201239617156
0.005112265342579778
0.005902224112300665
0.006015351699373771
0.01142905539776799
0.01243750655098516
0.0101565616474947
0.009824917088603495
0.01181312361479657
0.01301587292911848
0.009782191981601534
0.03426555323852387
0.04258703924143258
0.03239542130895907
0.02856252766825624
0.03659372100253991
0.03251305093724917
0.03114981038907085
0.04887391238332339
0.04930180764115557
0.06500024063504789
0.05201152744959656
0.04792348638699827
0.05891691380524344
0.05407082358362539
0.07051103020602531
0.06837628600213189
0.05400931536372053
0.06350425052712459
0.05898509899238655
0.06208125424271232
0.07703435044291776
0.08467275177650832
0.07030871017332137
0.06386868484552426
0.0648357354664834
0.07906853264556557
0.06871722397719156
0.07558505184092294
0.00450014352617316
0.003923683196853124
0.003594742515447199
0.004594395462079556
0.003722139166218834
0.004732882263020195
0.004354433551373832
0.01173479557441924
0.008694995926450864
0.01310690608119671
0.009232558592453909
0.01215557697397175
0.008264690732572737
0.01300883817853048
0.06388777940079129
0.0621465914143596
0.06829834030327711
0.03884786183343451
0.03872222926550296
0.03864085976241743
0.04144368626033005
0.005887229880647719
0.004952558838511489
0.004566801359903315
0.005634167496252122
0.004877244249378407
0.005953156804891184
0.005525699734672354
0.01242662182150935
0.01334664945905736
0.01013658177017543
0.009534548943050268
0.01236554133715091
0.01335556935550881
0.0101568353726447
0.03765524015932078
0.06202595565394176
0.03834049448135703
0.03776585902422578
0.03230458986800468
0.04060178102096996
0.04472332811260037
0.1052306711671338
0.1212326412350515
0.1100132370439977
0.1175052525179873
0.09647077127085583
0.09267457126050539
0.09835973118575352
0.09189866554347903
0.08434155414348588
0.07501970852070201
0.07862726011253882
0.08231988787551216
0.1071758030819125
0.1217693186019349
0.1101331363360036
0.1205322689469252
0.0005009449700959653
0.0005490712948117636
0.0005142138940625243
0.0004632393517003908
0.0004669631551271694
0.0005528816993737963
0.0004973607898727341
0.0005083397594307204
0.0005727037383565439
0.0005215318769864486
0.0004777121965238558
0.0004760651222785525
0.000519858557404291
0.0005614481728152828
0.0004317375317675716
0.0004747836675534264
0.0004618288435687216
0.000404248841187511
0.00044358821513698
0.0004389529737111001
0.0004564170204419986
0.0003826646690207569
0.0004120926132244282
0.0003914230051057516
0.0003490446951131012
0.0003565489610027906
0.0004182809032410236
0.0003758402547616013
0.0003979812962543401
0.000441182937755028
0.0004052731657584588
0.0003912070801937014
0.0004083986742969719
0.0003718278245033914
0.0004299989400027764
0.0003502944824638298
0.0003154188679895479
0.0002887766727418947
0.0003087287078749138
0.0003160447644610762
0.0003223948133223325
0.0003425268284346063
0.0003671308612796659
0.0003601540926007128
0.0003003969476934612
0.0003597447623703422
0.0003287955013587719
0.0003921573003029697
0.0003373459531177251
0.0003857788373405729
0.0004103345314420551
0.0003348431383361932
0.0003926896420843585
0.0003432534728299289
0.0004209103960171317
0.0003765592229755409
0.0004055821762214577
0.0004893878112363781
0.0003907224982515669
0.0004083520511671219
0.0003587231334667714
0.000444493068411222
0.0004338794838953306
0.0005586032235704956
0.0005926860997448276
0.0005808124485618307
0.0005010943925425955
0.000536905988584935
0.0005259745954768016
0.0006143493038035375
0.0003904330740709481
0.0004571179381816531
0.0004596829696110045
0.0004203501824246596
0.0004335654536229212
0.0004361454698538355
0.0004445655835341386
0.000484912701306306
0.0003933020423105219
0.0003923892885915048
0.000385599938056634
0.0005058535394803773
0.0004271132629148402
0.0004333313669461109
0.0003287984013489361
0.0003818343757510458
0.0003853689405573693
0.0003665516875094048
0.0003468939302793606
0.0003497782857404303
0.0003632780040200631
0.0003010344220804661
0.0003257483130916586
0.0003271421432344109
0.0002873480580572525
0.0003340022480591669
0.0002935832529213469
0.0002948239581515758
0.0003159604859111381
0.0003729653348938568
0.0003434322066492379
0.000330717875070013
0.0003368225871991038
0.0003501197884089731
0.0003097306632918475
0.0002823641902909131
0.000292442281395589
0.0002485463738866855
0.0002695468772381497
0.0002540195156033689
0.0002990113986550944
0.0002759690358667324
0.0002707879183686444
0.0002588806911620265
0.0002390812534254597
0.0002393896047783145
0.0002445556974996672
0.0002644608509893798
0.0002651898011429278
0.0002842079015503606
0.0002973942642642698
0.0002503873997993404
0.0002732799275971922
0.0002555488522224923
0.0003032510169349954
0.0002785391697449207
0.0002959683281861963
0.0003337938011181929
0.0002807170336080448
0.0002829855600470439
0.0002650104722020137
0.000313121363030208
0.0003155515931255726
0.0003955736276979566
0.0004020577052324746
0.0004290853019477545
0.0003591442844608307
0.0003653765579188807
0.0004337625384528081
0.0003901418234008408
0.0003605850926600424
0.0003234294948663588
0.0002948766813371862
0.0003175035639455486
0.0003247182788078527
0.0003297059165189372
0.0003534895895567865
0.0003757893144968224
0.0003633035082560628
0.0003050485653200622
0.0003653579320957404
0.000336286030430963
0.0003986445807867079
0.0003428964577453352
0.000772680266930763
0.0008609952720658116
0.0008137460599721178
0.0007161471178299381
0.0007230730793069675
0.0008677646318008489
0.0007665591065764544
0.0007845619470665107
0.0008290166467822298
0.0008994040911470664
0.0007561843813953118
0.0007366078961090838
0.0008013164809645693
0.0008808598527631968
0.0006901015502156539
0.0006379031455099714
0.0006130010261356326
0.000574161142243144
0.0006178996948948459
0.0006438498728677817
0.0006845579309529289
0.0007010289980701744
0.0006727981485285801
0.0006407394751797438
0.0005834187317389982
0.0006283071031878251
0.00065553159040939
0.0007159286790593622
0.0006421079385669079
0.0007761110533976931
0.0007520507547242502
0.0007105724115045672
0.0006884593791943278
0.0006663529335119395
0.0007242520696223901
0.0005807641796294149
0.0006433196628918191
0.0006085084909388494
0.0005306293474261916
0.0005407726877523543
0.0006542104165380568
0.0005714048478203216
0.0005990214004418297
0.0007058552832069601
0.0006314124493861651
0.0005888717449535875
0.0006253554682698721
0.0005605154683276573
0.0006754174519100791
0.00055632511996704
0.0005920451481186395
0.0005319307036560232
0.000490887005557973
0.0004966334699976608
0.0005984739278418614
0.0005491767487270588
0.0005703386289283363
0.0006303229836616115
0.0005412968796482242
0.0005227080051189945
0.0005077075786287369
0.0006112299518269281
0.0005907570851296973
0.0005173956034514799
0.0004738213530188969
0.0004564733414251181
0.0004329765349374286
0.0004632278119545604
0.0004825676388390846
0.0005094460945422385
0.0005328387018023544
0.0005236915205016752
0.0004932851488412991
0.0004476997072867432
0.0004760964085677916
0.0005549827521759315
0.0004995150570686374
0.0007577255315949487
0.0006965694824291095
0.0006599847485270986
0.0006477867489103717
0.0006808602085068402
0.0007356580513600763
0.0007232396498306368
0.0006980314909568813
0.0007440260804481698
0.0007526075815895917
0.0006246309684149957
0.0006588563047658843
0.0006661584800657865
0.0007879528798012004
0.0006515799292007007
0.0006567224120229537
0.0005469316361644041
0.0006126368319052139
0.0005774475555962047
0.0006181862541245299
0.0006872135285518837
0.0006184143763737929
0.0005543480481033173
0.0005167313873624824
0.000521540355572759
0.0005429977630838635
0.0005838826505577712
0.000590038122635687
0.0005019080839717472
0.0005938605735255154
0.0006007796562564984
0.0005579191887049275
0.0005277475908713636
0.0005335729138294862
0.0005642203423028909
0.000461161417588978
0.0005037629112965058
0.0005063381355677747
0.0004396329676593283
0.0005173244332076301
0.000449415392627345
0.0004515696192365914
0.0004840051353938616
0.0005814110617334961
0.0005331214932908713
0.0005080432307886499
0.0005167199923054637
0.0005436884020501519
0.0004747875618719753
0.000429128435214024
0.0004433191430138821
0.0004064982482098198
0.0003766194330388134
0.000385457094179961
0.0004527359946568007
0.0004191974887147389
0.0004484070524471813
0.000497005598399798
0.0004226171217277685
0.0004268243793521768
0.0004025743578292053
0.0004709906611264319
0.0004759336414692973
0.0004127302132723193
0.0003938415519934553
0.0003616430150142051
0.0003632200149252494
0.000370769749747444
0.0004024576999710622
0.0004042845461352097
0.0004326950059293108
0.0004536634999625746
0.0004137648955426603
0.0003812420934825474
0.000388499193475512
0.0004612482572527414
0.0004245925205121973
0.0006047766107741777
0.0006284998595358703
0.0006741973899435732
0.0005496350051055503
0.0005576388593607043
0.0006825777554715503
0.0005975307898989134
0.0005498179741941711
0.0005295893929157997
0.0005036856157622958
0.0004569965062991586
0.0004907215031652405
0.0005670838784152689
0.0005103274776040286
0.000537917490410477
0.0004900245723782966
0.0004453461784064801
0.0004758704051909058
0.0004809935193648908
0.000496940055355883
0.0005317912210243103
0.001103990391829776
0.0009698974866124651
0.0009181587355488657
0.001028946530265875
0.0009774035404733449
0.001038885073764662
0.001095663058356722
0.001120018918969225
0.0009352810660336732
0.001012355245396791
0.00108512927968963
0.0009918911514771069
0.001058060694347264
0.001142553456088227
0.001250430346003922
0.001167777789815689
0.001410049487601435
0.001341941853311481
0.001420250484407856
0.001178939847672167
0.00124120273158478
0.001268130956164872
0.001230533849369788
0.001466772603360112
0.001365951412967977
0.001439737563401058
0.001200404929151381
0.001292866915790075
0.001847992237808095
0.001606480464239281
0.001739549651158044
0.001532278708552504
0.0016177187126385
0.001755294735773561
0.001835669893690333
0.002117303638298691
0.002418703649256519
0.001999924355862096
0.002326951742967431
0.002433190174047207
0.002017519504307055
0.002103881014479972
0.001871276627827035
0.001668460291861718
0.001559098246378082
0.00182622391324476
0.001639081437237019
0.001785188994867093
0.001902958282231957
0.002142482996714299
0.002495665426186552
0.002363677566205534
0.00209585455698727
0.002460119796370089
0.00205073324622786
0.002176290370672281
0.003790406671270713
0.004319789460421383
0.004432440865444053
0.00375462846400956
0.003695531881188898
0.003824778477929836
0.004403126234076313
0.003243087702279444
0.003105210826327602
0.002789345046288168
0.002693414166265872
0.002804772358850441
0.003128997945674092
0.003226980126754196
0.003272242667279906
0.003229541155223518
0.002869699410095633
0.002733740243224494
0.002833121944833835
0.003172825034184712
0.003308667638635385
0.0009285367125409906
0.0008768383347298984
0.0008504826988766042
0.001024920487693209
0.0008188822829398989
0.0009933581847783547
0.0009644158644720786
0.0008382442977259229
0.0007267373687735904
0.0006872154249521151
0.0007630580315508352
0.000739320962403159
0.0007788554420208104
0.0008237354491296311
0.0008663346930684027
0.0007986285964460524
0.0007136955346891846
0.0008529412923796675
0.0007637539600357858
0.0009062297931560602
0.0008094526746121954
0.0009860027119820516
0.0009714386533214406
0.00105267858677197
0.001178638486929897
0.00112624191176397
0.001031683465835533
0.0009213426857368449
0.0009536828122357705
0.0008676104790209298
0.001011608974765772
0.001069625252221489
0.001088982397179956
0.0008859380508146404
0.0009369418676623773
0.001027327825493635
0.001090427000275061
0.00115531410822907
0.001258136849228995
0.001103525222493625
0.001172499239328737
0.001012350012837333
0.001056218450206935
0.001164287593317025
0.001251923412184949
0.001286713171244595
0.001128758583624891
0.001205542967676864
0.001096987825483597
0.001436772478036299
0.001159800990001498
0.001306299344588068
0.001225846723161945
0.001248289853451883
0.001335449941874852
0.001410673701244504
0.001718856995167241
0.001700502409466319
0.001872562466758024
0.002088635749779373
0.00199634719502408
0.00179880243573821
0.001610135243787225
0.001660910641182869
0.001510506573973031
0.001795754439174263
0.001893268775246762
0.001928885867620243
0.001544789916238349
0.001630467618017619
0.001544373357852551
0.001323314145053634
0.001633150742731858
0.001439299739244995
0.001652413465988136
0.001343070167869358
0.00152161600533066
0.001783040995947184
0.002037002232650087
0.001882209976374009
0.002202711023489609
0.0019041360291638
0.002067364171424297
0.001756776388265836
0.00158780845449677
0.001433745042043385
0.001471676912242931
0.001739747680527676
0.001689100436764546
0.001380925543125011
0.001648004897628521
0.001832943212056303
0.00220293217606415
0.002249711678262964
0.002002548183071623
0.001945687019483321
0.002124747098803617
0.001901563048423875
0.003115055717313724
0.003627527340188889
0.003470476762202271
0.002848135999273578
0.002916173841936705
0.003694920795691968
0.003057366776790664
0.003222222694809524
0.003619246245268221
0.003981286641876812
0.003211114759509988
0.003363418382370754
0.003042737030366914
0.003819177531989871
0.003399582949234107
0.004186897298292159
0.004142492799079943
0.003648083489663567
0.003562022759522736
0.00351368344374737
0.004013927636392254
0.002732687584572872
0.002717314816129703
0.002189096676677194
0.002436340471050133
0.00232977909814116
0.002855569635960042
0.002573340544926206
0.002640828406346122
0.002409172579199763
0.002098525413896543
0.002209313180278797
0.002251096084271003
0.002466281835406536
0.002591722630493053
0.002817310005983753
0.002951816921584017
0.002372613255689199
0.002558383445422969
0.002983938812705923
0.002407751949799483
0.002776631926819507
0.002893174242795074
0.003122074590480968
0.002562708117877947
0.002611422889686479
0.003043556514152434
0.002473753820845012
0.002994108808064275
0.001355117054307615
0.00126705414220295
0.001498964342617839
0.0014833325725983
0.001322651169567818
0.001533490842447295
0.00130725395836712
0.001977051810638813
0.001702973077270549
0.0018743173178241
0.00168748563591509
0.001939556933133841
0.001739252402036473
0.001924751309420886
0.002252355963327857
0.002534724329022899
0.002147890620490994
0.002523822663536244
0.002214515454986586
0.002571563086312604
0.002201143260881895
0.003372617029513353
0.003289820318217863
0.002908309693828146
0.002901292015521459
0.003344830661591148
0.002942118756593849
0.003343602251483622
0.001010966479461538
0.0008419637606140188
0.0008520715917765606
0.0009066595887623534
0.0008912973903609562
0.0009554442430821222
0.0009673965675630598
0.001150218289271313
0.001032918876631917
0.001259283728373894
0.001242363809776827
0.001087647278247001
0.001312919989809734
0.001101838922869126
0.001202313845735739
0.001207558059558889
0.001308166689718703
0.001427971599124257
0.001146811425075149
0.001255518669126004
0.001370168939800908
0.001994106701079508
0.001807779014348289
0.002231990917392547
0.002196466506302468
0.001893362348693694
0.002309369555200597
0.001922718218121054
0.001796616354983696
0.00149724289884305
0.001799656786507622
0.001628814703716528
0.001719653234727879
0.001863396816629682
0.001566409818813449
0.002067593662682228
0.002293669780832492
0.002068919447186156
0.002460961791385513
0.001982294684266851
0.002138178562729875
0.002387654978081726
0.00375587596082811
0.004278686165926084
0.00445147819620924
0.003739467746187833
0.003638506465537397
0.003821461169841728
0.00439926744079207
0.003134376721293472
0.002881314565421627
0.002602223836357007
0.002559105176333979
0.002994944938917627
0.002685016040799727
0.00304742656510427
0.003217965389828147
0.003208302154415708
0.002664286015394631
0.002841161022771876
0.003107161842475956
0.00329011896621441
0.002766965967268928
0.0007214503474297366
0.0006707682603803163
0.0006790504747931418
0.0008069597575962055
0.0006367820309546484
0.0007604167200431289
0.0007703993892445577
0.000658776428070187
0.0005668826070535624
0.0005699944448081216
0.0006255495759527614
0.0005826291271208296
0.0006404190263820524
0.0006442126048943575
0.0006943504267969409