/*--------------------------------*- C++ -*----------------------------------*\
  =========                 |
  \\      /  F ield         | OpenFOAM: The Open Source CFD Toolbox
   \\    /   O peration     | Website:  https://openfoam.org
    \\  /    A nd           | Version:  7
     \\/     M anipulation  |
\*---------------------------------------------------------------------------*/
FoamFile
{
    version     2.0;
    format      ascii;
    class       volScalarField;
    location    "0";
    object      Phi;
}
// * * * * * * * * * * * * * * * * * * * * * * * * * * * * * * * * * * * * * //

dimensions      [0 2 -1 0 0 0 0];

internalField   nonuniform List<scalar> 
12667
(
57.34128839194013
56.00799883350559
54.67475502200217
53.34156105920832
52.00842351313972
50.67535197959676
49.34235994976102
48.00946611753335
46.67669634756928
45.34408668983571
44.01168822885371
57.3413320119776
56.00804450256593
54.67480496491191
53.34161787837559
52.00849044820242
50.6754332706261
49.34246137606181
48.00959583213557
46.67686621191098
45.3443144404715
44.01200084999695
57.34135420608199
56.0080677539218
54.6748304236888
53.34164689478806
52.00852471144784
50.67547500517244
49.34251363604842
48.00966296256733
46.67695459667819
45.34443376001521
44.01216634788209
57.34126393830071
56.00797324367593
54.67472706354908
53.34152929318429
52.0083861525604
50.67530669195792
49.34230356443404
48.00939417228107
46.67660236193878
45.34396098464429
44.01151604140484
57.34130703391711
56.00801833964757
54.67477632876437
53.3415852579306
52.00845195548089
50.67538642351006
49.34240277354125
48.00952064744384
46.67676737595929
45.34418129857079
44.01181692227389
57.34132895987428
56.00804129761156
54.67480143981258
53.34161383460538
52.00848563396043
50.6754273493269
49.34245387862233
48.00958608136321
46.67685319624684
45.34429658506782
44.01197555102771
42.34723358107532
42.34700780854624
42.34736536525366
42.34720306532233
40.87831961776525
40.87804741302178
40.87887010890331
40.8785725782656
39.58097473490515
39.58027400871337
39.58055128374581
39.58182828901855
39.58136272310463
35.6969722741975
39.2567893256637
37.96164098235094
35.69840290298094
39.25600456823759
35.69496578481282
39.25631419604206
37.96130313943586
35.69946918411123
39.25774888835396
37.96193185180807
35.7029132554078
39.25722367837469
37.96158602371673
35.70025776998569
35.37442943782005
34.16533390821514
35.37207442875245
34.16445995605992
35.37610946666651
34.16676898195578
31.7741572430927
35.37734146319934
34.16584120244062
31.80504414923863
31.69241486803467
31.69717578395586
31.69992530890587
35.38146206891101
34.17656987612987
31.77673951138248
35.37827125250193
34.17529682468894
31.77219469966168
40.87813014109569
40.87796946660627
41.68929991518911
41.6892164686977
40.87815571116857
40.87876657990216
40.87858919713678
41.85214681819772
41.85201057452391
41.85175065381682
41.85126507003739
40.87786422428972
41.68904982367927
40.8784739652051
41.85192754366954
41.68933696317782
40.87868996898786
40.87902826157941
40.8788442195379
41.85222188806743
41.85233923425784
41.8522044004086
41.85208513571917
40.87872403850703
41.85211782514607
41.85199980083073
39.5806835078908
39.58043538844603
40.55369447909672
40.55351556404574
39.58071812897241
39.58166704270248
39.58138972467809
40.55390486402639
40.5537211129042
40.55440140965387
40.55420420130665
40.55339846532242
39.5812095850492
40.5536008420288
40.55407580129892
39.58154603246367
39.58207550533342
39.58178560246808
40.55451645371095
40.5543160799166
40.55469235502269
40.55448724778609
39.58159738257112
40.55418553478727
40.55435352726291
39.25646312023628
39.25618510238155
38.28424783927354
38.28384937879493
37.96035410929754
36.98936820775768
37.95990181123114
36.98869144107633
35.69574097981914
36.66598810318708
36.66520760691765
39.25650121686389
39.25756723219396
39.25725448802431
38.28538181071821
38.28584038789953
38.28471468013047
38.28429890838103
37.96216622634972
36.99129088225225
36.99210276421712
37.96088368433843
36.99015860029699
37.96041046502384
36.98944363301225
35.70202363116007
35.70045254548745
35.69707805184492
36.66820361320891
36.6691522621149
36.66689865693822
36.66607088869057
38.2835920362587
37.95961032500954
36.98825871916699
36.66471017088514
39.25705166111865
38.2850861487338
38.28403052265278
36.99077324629439
37.96010567232657
36.98898687708807
35.69624536160335
36.66760099084796
36.66554384527538
39.25743027029587
39.25802773156127
39.25770000951491
38.28563686683518
38.28610574814569
38.28651487963979
38.28602995678071
37.96246967650431
36.99173315541668
36.99256884697097
37.9629383494224
37.96238090048224
36.99329308418592
36.99242007114985
35.70127976341043
35.70430509712142
35.70257901526195
36.66871682557728
36.66969534818567
36.67054112725801
36.66951581052962
39.25748758295416
38.28533464478051
38.28571752551313
36.99120056860446
37.96202261980234
36.99186400674407
35.70149596950023
36.66809551927524
36.66886509449901
31.63388384447801
31.62821156473905
31.69659518635191
31.70632419718191
31.62422363594921
31.61933989348544
31.5961963489908
31.59924563757827
35.37298141509178
34.40624557412545
34.32916177114827
34.16867398757673
33.04242109331885
33.04925493484135
31.7479027445883
31.78171705261795
32.88240829400532
32.89003866733125
34.4047424719914
33.04069556481706
31.74517374365033
32.88049779587989
31.61119259355923
31.62470185209952
31.6940588643627
31.63245882857172
31.58663544198888
31.60452091535688
31.61630616685735
31.59427875467431
31.60616490856327
31.59111949267165
31.62539245147956
31.60483165552744
35.38039877181753
35.37851275653313
35.37454177399037
34.32744519426813
34.33064131898698
34.33549614992438
34.33975132940608
34.17029579103261
33.04513988630247
33.05252360039666
34.17559977474603
34.18035095382458
33.06281616134051
33.07404437359332
31.77032030615618
31.79017073738082
32.88540201581859
32.89368332142576
31.77749631804136
32.90505137739869
32.91793992760236
35.37356212195174
34.40715288030698
34.33438403903344
33.04328202909199
34.1743623035939
33.06004197158454
31.76582876788251
32.88333677613034
32.9019023787618
31.62200437428933
31.63184328131505
31.60937020341126
31.6986016020011
31.63962886135965
31.72825981485674
31.71505082099485
31.73194901560572
31.75204014829519
35.37949408117716
35.38312334811947
35.38104155978954
34.33637478186493
34.34075237255946
34.34446031051278
34.33963347384974
34.1814623330074
33.06484100673103
33.07652979832842
34.18559057111485
34.18017020971309
33.08588595770365
33.07245253606075
31.792443721
31.83728092785899
31.82227741996942
32.90731646359111
32.92075966858241
32.93138217282331
32.91584271038437
35.37973889118723
34.33523091297916
34.33837230092089
33.06195750247142
34.17876245912416
33.06915417545458
31.78714542748591
32.90403749456597
32.9120707672821
31.71654220412236
31.72181824211518
31.76091089098576
31.75400206891206
31.74992710696706
31.73567656746778
31.75635655535006
31.77287356349799
31.70129226446848
31.71154178108228
31.74569109298293
31.73187516570856
31.76547222550151
31.78292204346905
31.75837352828812
31.77510092768348
31.69500662155312
42.3467972292442
42.34672737365091
43.01273762322864
43.01267957034715
42.34715790063665
42.34703974002234
42.34696459923506
43.01310146903651
43.0130387723601
43.01293805475841
43.01287763819357
42.34659185524306
43.01256850141636
42.34682733815328
43.01291889021451
43.01276239822786
42.34743288578543
42.34735510691613
42.34728818802696
43.01320842195783
43.01326556242202
43.01320136202567
43.01314453992261
42.34713761150868
43.01307806191506
43.0130224421871
41.2029057985131
40.87829185814365
40.87848982517064
41.2027782412063
41.20275326087267
40.87846121234312
41.20293175369622
41.20256287946516
40.87820956554084
40.87791433090462
41.20253698365858
41.20267683062765
41.20241722605501
40.87807526785791
41.2033189679187
40.87883977313309
40.87894876134806
41.20327552406014
41.20324818443154
40.87891810500115
41.20334653875065
41.20294281992823
40.87842868432027
40.87864781292465
41.20300648716928
41.20287572909299
41.20307494927326
40.87850211040838
39.90542203360835
39.58093142785458
39.58123768704877
39.90522679750924
39.905188149402
39.58119305947764
39.90546179971589
39.90415719213809
39.57997266153482
39.58007668342549
39.90459937610685
39.9043282631831
39.90442224477831
39.57978247623344
39.90488477339238
39.58080146961339
39.58034732256773
39.90484835258542
39.90507258858446
39.90466562289591
39.58059145873405
39.90605477584596
39.58178062446687
39.58195108228625
39.90598838281915
39.90594603980347
39.5819027748908
39.90609766281083
39.9054762280006
39.58113884994956
39.5814792975447
39.90557427888338
39.90537472892371
39.90567827619873
39.58125248881628
36.01831304719072
35.69676111423508
35.69547816945222
36.01976571544131
36.01958560023577
35.69528349245015
36.01848007228615
38.9329535653192
39.25674066190657
39.25708439266448
38.93267818042757
39.25703415814645
38.93262332575257
38.93301029785128
37.63791723752234
37.96190076688399
37.63803284964036
37.96128659218547
37.96153889616657
37.63762774392218
37.63833150640158
36.02192566850036
35.69974101446639
35.69817544838367
36.02099042572214
36.0207975123265
35.69949798100529
36.0221307568275
38.93118439396935
39.25566871380485
39.25578412474463
38.93179672185595
39.25545668486005
38.93142141728234
38.93154974994396
36.01614543813263
35.69404415741695
35.6936255701023
36.01804754644564
36.0168847021145
36.01725305201574
35.69277254297095
38.93219259087983
39.25659407939456
39.25608589847991
38.93214343203172
39.25635860025841
38.93245742555843
38.93188714181515
37.63679748679365
37.63764516033532
37.96089401963071
37.96095839018184
37.63725183628728
37.96056081174929
37.6371767488137
36.02016090058075
35.69852211065671
35.69830503402866
36.02191560665187
36.02110681648486
36.0209282722056
35.6974103452546
38.93385509141066
39.25769504029238
39.25788734018824
38.93376041189835
39.25783272608895
38.93369934939867
38.93391707368514
37.63893319854652
37.96219783371661
37.63836588975509
37.9621544275798
37.63867215343299
37.96242518611579
37.63862106297108
36.02515334169988
35.7026322812436
35.70360148371253
36.02481483574875
36.02458030296605
35.70331279347842
36.0253941182494
38.93302493373893
39.25697173236556
39.25735473439402
38.93316578744776
39.25709930303175
38.93288130236075
38.93331358533196
37.63772696643804
37.63796842196265
37.96116734799147
37.96180244589758
37.63748834352577
37.63821604775809
37.96137640797008
36.0220567614526
35.69904945958337
35.70086843791402
36.02258731859081
36.02156514295189
36.02310617115781
35.69962526893143
31.38088022500646
31.39277680744748
31.37369668822448
31.40170438257973
31.28519807476997
31.27448653186356
31.27627988164497
31.2830434436087
35.04985757067646
35.37418066877775
35.05217134598799
35.37268512231224
35.37245717477951
35.05187746681633
35.050125606417
33.68017894607758
34.16745161957218
33.6834928755442
34.16071440880177
34.16267605006279
33.67788503099443
33.68630012928675
35.04644545945268
35.3710008291761
35.04939318475606
35.37052427530837
35.36953638772929
35.04759371569795
35.04813719657137
33.83637405770413
33.68232923957839
34.08075911849715
34.07994602227236
33.67692914434303
34.07809612448503
33.67835962020993
31.35674859646966
31.35819942640266
31.31002099239396
31.37208145814856
31.27352639735347
31.26323375362474
31.26648802480167
31.26969644118477
31.29372524380705
31.3536079473322
31.30178501224097
31.3007911290721
35.05568340125657
35.37768866429467
35.37583958378848
35.05415603043016
35.37739859021406
35.05383355474208
35.05603241859231
33.6943419532466
34.16899020924141
33.68536502839044
34.17089062597594
33.68835219643523
34.17345460247439
33.69081196022584
31.81407734992794
31.79567629572852
31.80262334200197
32.2774646643226
32.27819590567501
32.26580024323108
32.29235031936624
35.05270102804633
35.37622697293514
35.37596074737213
35.05558403241704
35.37491276968084
35.05426492411634
35.05393515541753
33.84356333934098
33.68412823684444
34.00166198167547
34.16982215409288
33.67991897650575
33.68935607111391
34.16614796040112
31.9357562375015
31.78892520821389
31.93221447719713
32.2504789957386
32.27279397659046
32.26131531520235
32.25618253372412
31.43498905966363
31.67813939022091
31.46094946180445
31.68382834117204
31.63515218591883
31.45085543602956
31.44337156259214
31.47266685388285
31.46700783917139
31.68814942492122
31.71131233382851
31.70098922399892
31.45630021491842
31.48527128097009
31.49945676349058
31.47029166264163
31.70735740446104
31.71448394570174
31.48912687676317
31.72302707449057
31.47911761339486
35.06112057434844
35.38112232950182
35.38228647114889
35.06055085263761
35.38193699343294
35.06013528943402
35.06155574459361
33.70622105340647
34.17963201417609
33.69845299798786
34.17884689858038
33.70278453818594
34.18211693967235
33.70155404730157
31.79103217340128
31.80605808955209
31.8248254250832
32.34668850122691
32.28179891818457
32.29666498192018
32.2903600019921
35.05577032289462
35.3768350289571
35.37899426884933
35.05668061744153
35.37751281207886
35.05496753730043
35.05754359122274
33.8522847742889
33.69667517929348
34.17167276706835
34.17748916115112
33.85151497359411
33.69964179089759
34.17285475679297
31.94216094524781
31.78579989858697
32.10705920734048
32.27612871652889
32.25872950467951
32.28405263744233
31.7919411223331
31.45301560596653
31.40908502028818
31.47618147047044
31.39211400624356
31.47469745663812
31.44608645852175
31.45967724555768
31.45995379491998
31.4293922758675
31.39919670342774
31.40872911128409
31.41807542637191
31.49991404082136
31.41686192165928
31.48308209770421
31.43040056804
41.20239951671513
40.87792330218172
40.8781031733584
41.20260706401317
41.20258293435567
40.87789723061141
41.20242246411266
41.20235502387276
40.877766373478
40.87804943561252
41.2024626148141
41.20253428633069
41.20228047048014
40.87784526808824
41.20285461935593
40.87823689001824
40.87832033900072
41.20263595914908
41.20270448503174
41.20277864588261
40.87840447455567
41.20304010471402
40.8786393021028
40.87873668020401
41.20318199591185
41.20315497348818
40.87860996122615
41.20306674320107
41.20298726889759
40.87846541607519
40.87867727835263
41.20302126300621
41.20290864642851
41.20310122415848
40.8785517186214
41.52751290157117
41.527643083621
41.85212507182994
41.85204690237496
41.8520231108889
41.52761860985377
41.52753752798761
41.52746436545743
41.52749556086986
41.85208244688322
41.85188529162684
41.85198061624312
41.52738821374963
41.5275698279526
41.52739096948237
41.52727666679753
41.85193635653854
41.85171054806317
41.85191158692442
41.5272535399381
41.52741520656056
41.52734422153787
41.52717384902157
41.85176299026482
41.85167271980225
41.85187035072174
41.52720964681058
41.5272725398101
41.20206460816876
40.8776627752151
40.87773357979328
41.20237075488475
41.20218534333397
41.20225092953881
40.87753466534914
41.20269234207579
40.87835286304806
40.8783328141235
41.20291758762921
41.20280863701922
41.20279056102426
40.87821589890935
41.52722960753536
41.52740195486497
41.85176831579183
41.85179492960317
41.85128916987953
41.52730169893125
41.52728394235031
41.20326406466944
40.87877947163297
40.87876665015559
41.2031126630173
41.20319375021741
41.20318232325379
40.87885715281227
41.20336649898569
40.87900166410591
40.87899728480817
41.20341821702626
40.87897079416588
41.20339423307521
41.20339040058972
41.2033112758842
40.87881826121241
40.87893569090948
41.20325259392083
41.20322907611875
40.87890941342867
41.20333501627979
41.52776730510814
41.52772768091706
41.85228091492988
41.85219977382419
41.85225889293795
41.52770303427263
41.52779206965285
41.52781019389361
41.52785680789877
41.85231931330035
41.85231697288472
41.85229708350066
41.52783509022963
41.52783184949966
41.52776051574373
41.52770749354178
41.85227253273008
41.85218449762022
41.85225284618203
41.52768604915092
41.52778204469009
41.5277178636129
41.52757933025587
41.85215646898551
41.85214711147871
41.85221499413096
41.5276538601518
41.52764361917452
41.20298800213536
40.87869851717248
40.87857661948414
41.20314421260163
41.20312100951499
40.8785516545136
41.20301084033313
41.52746646400272
41.52760974077984
41.85209830146873
41.85200404385781
41.8519821685368
41.52758846140369
41.5274879819986
41.52742444586328
41.52748261815709
41.85206163873453
41.85185831904514
41.85194482277056
41.52735860303706
41.52754642556453
39.90464623101156
39.58036719061632
39.58064164138589
39.90496608769312
39.90492865393309
39.58032686675843
39.90468236500831
39.90457444682986
39.58055852803003
39.58012816956995
39.90474404108912
39.90485430007661
39.90446797428955
39.58024680642455
40.22901730861723
40.22930485397556
40.55346471875485
40.55366439377097
40.55343556842693
40.22927131233858
40.22904975606112
40.22895279076467
40.22910567724715
40.55329091811593
40.55360454402514
40.55337751733973
40.22920464552992
40.22885694794969
39.90534307597184
39.58084546568477
39.58097330803328
39.90499761479465
39.90511139886491
39.90522605075685
39.58110448683666
39.90562779794947
39.58146936964042
39.58162021669571
39.90584477693035
39.90580314482433
39.58142356220272
39.90566856545964
39.90554686229366
39.58119804759227
39.58152729792896
39.90559805274373
39.90542693293725
39.90572049896229
39.58133265734747
40.22971385894148
40.22953881748259
40.55387389804061
40.55409398366315
40.55406215568873
40.22950424839514
40.22974938937188
40.22964329119006
40.22933367890994
40.55381239268618
40.55390518925496
40.55399894999191
40.22943557265864
40.229538637512
40.22989804797259
40.23009201090465
40.55426006187571
40.55436815762948
40.5542274602106
40.23005487103448
40.22993444351581
40.22982577291581
40.22987180064949
40.55406674477997
40.55430211450733
40.55416271925976
40.22971862794558
40.22998112046293
40.22857665811807
40.22897565145963
40.55317700635236
40.55325443929697
40.55303704368839
40.22873103452228
40.22881618437403
39.90507735562397
39.58102175497172
39.58098953854645
39.9054375662742
39.90526971236493
39.90524126904779
39.5808063561381
40.2292329298289
40.22919982061854
40.55378200251491
40.55345311290539
40.55363108125736
40.22940126324865
40.22903569038014
40.22940592078893
40.22972842411328
40.55394091743239
40.55391847273477
40.55378679579457
40.2295780771266
40.22955285970621
39.90596964422291
39.58168604719901
39.58166503856951
39.90573746379054
39.90586198604085
39.90584353110856
39.58180692591747
39.90612802571191
39.58203384690001
39.58202654300701
39.90620832242803
39.58198510427018
39.90617128028576
39.90616488250225
39.90604216552902
39.58174523866208
39.58192939825786
39.90595092366064
39.90591497669511
39.58188839420327
39.90607865496406
40.23027969998273
40.23022032668599
40.5544826783759
40.55460390113387
40.55456973281079
40.23018257793227
40.23031791206618
40.23020381699715
40.2299965014997
40.55441558305849
40.55440115712653
40.55450184899503
40.23010761675084
40.2300913326428
40.23034509710715
40.23041667408032
40.55466275720762
40.55465779269164
40.55462832638453
40.23038362099149
40.23037799337356
40.23026859396998
40.2301873102946
40.55445843696878
40.55458912121573
40.55455991744478
40.23015518863415
40.23030117845314
39.90554457963454
39.58155785047529
39.58136758020143
39.90578356136076
39.90574832105673
39.58132905270251
39.90557896482911
40.22976325883762
40.22985077648388
40.55402561489501
40.55426901486903
40.55410714811292
40.22967238914588
40.22994381333848
40.22982444043744
40.23003797597733
40.55432524012804
40.55418971087539
40.55416207220799
40.23000646142855
40.22985521598896
38.93186473024322
39.25610952886653
39.25641616975103
38.93231172580992
39.25606440970246
38.93225891556353
38.93191536121205
38.93176430723579
39.25632301097802
39.25584230336025
38.93199927540372
39.25597487390502
38.93215418412701
38.93161573864455
38.60773443797291
38.60823704154078
38.2837453225067
38.28418036385224
38.28368097069569
38.60817744880791
38.60779142753812
38.60762146349503
38.60788478287956
38.2833652007277
38.28404670289351
38.28355347544268
38.60805933175894
38.60745447253401
37.63583906309824
37.95978561018202
37.63656725258104
37.96027743409174
37.95971270175388
37.63647979342963
37.63592195574299
37.31207068330316
36.98852789739535
37.31290030627383
36.98925302303895
36.98841953980345
37.31280014811311
37.31216527436738
37.63567505311843
37.95935539486656
37.96012564921956
37.63605195576601
37.95956834559571
37.63630678624345
37.63543338765709
37.31188367131784
36.98789094321531
36.9890255561146
37.31231096607682
36.98820549356055
37.31260217925839
37.31160846241667
36.01798414662534
35.69634598911248
35.69434205678498
36.01871321328429
36.01923108225723
36.01750334124371
35.69490059226886
36.34152461278332
36.34277970675561
36.6650237549664
36.66585504706672
36.66489912362001
36.34262528205827
36.34166857226295
36.34124080745611
36.34187551002736
36.66429227981399
36.66559254859293
36.66465316407007
36.34232096339046
36.3408251181207
38.93284108209417
39.25664411492072
39.25678703716077
38.93235370031525
39.25693450571098
38.9325145533972
38.9326747721945
38.93324546489907
39.25734477767339
39.25751438246264
38.93355505521414
39.25729313979433
38.93349519034489
38.93330387742535
38.93312966240379
39.2570391638676
39.25740956078793
38.93320111273784
39.25719071339485
38.93295847309582
38.93337651872655
38.60915941891672
38.60923967719784
38.28560878670867
38.28507058567388
38.2852914175887
38.60896535439142
38.60943881739015
38.60929082284201
38.60964175128723
38.28576266544263
38.28551670306863
38.28544110529261
38.60957367886699
38.60935714385194
38.60896071846432
38.60864998432452
38.28513962289018
38.28464425510668
38.60858794180055
38.28506647357579
38.60902501697471
38.60883330779511
38.60828332830419
38.2847078671987
38.28450477311007
38.60846498612725
38.28492161620797
38.6086451067076
37.6381139520022
37.96207709861404
37.63863717354484
37.96179665200466
37.96171011743461
37.63853449139318
37.63821344916013
37.31444438619759
37.31457568272918
36.99169135250017
36.99075490932121
36.99114135813777
37.31411071369507
37.31492065161191
37.31467144831421
37.31527434400895
36.99196438571105
36.99153823411471
36.99140475906228
37.31515545832158
37.31478639601568
37.63762590437211
37.96136691594434
37.63717014487328
37.96080343914299
37.63707834065738
37.96128336275876
37.6377217489601
37.31411097910569
36.99088617110689
37.31358925005149
36.9900368611026
37.31348377202981
36.99075828829618
37.31422142285808
37.63743638171674
37.96087431724364
37.96064461525801
37.63662942623806
37.63689677477029
37.96111801776704
37.63715739985425
37.31389277511009
36.99013541439287
36.98979651407269
37.31296884127485
37.31327533601478
36.99050587190673
37.31357202551806
36.0229468151598
35.70095710880231
35.7017533362365
36.02406492262422
36.023838672507
35.70069965300785
36.02316312596683
36.02252160416441
35.70122304757153
35.69946032863645
36.02274596821169
36.0219017066336
36.02339400004572
35.70019448277463
36.02152237502247
35.6977286314354
35.69832683934217
36.01986399977798
36.02041799073717
36.02093408050617
35.69902087255747
36.34514808905033
36.34534358024808
36.66867101575669
36.66758299588112
36.66803286637395
36.34462152676467
36.34589224340671
36.34550839292775
36.3464585993454
36.66899027369066
36.66849589004399
36.66834005358669
36.34626780045644
36.34569140917054
36.34463601392467
36.34383328652715
36.66773975626604
36.66675747071713
36.34366870343607
36.66759091494972
36.3448102094063
36.34429297962748
36.34287019225241
36.66686750246995
36.66647901935064
36.34334448811832
36.66729744776134
36.34379142328794
38.60697062671258
38.607656833205
38.28311956465372
38.28327928776147
38.60723631828582
38.28282089682288
38.60737933161747
37.63473828713241
37.95907796440277
37.6357206543782
37.95925674486141
37.63511904554163
37.95874124805832
37.63531960437724
37.31081920608663
36.98748329712499
37.31193304937533
36.98773739621043
37.31125111296685
36.98699178767178
37.31147660802511
36.33964585381292
36.34130131472326
36.66382558646095
36.66411255138837
36.34028883149924
36.66326438396541
36.34061361395555
38.93246233321855
39.25684090859016
39.25680425916273
38.93297197464764
39.25659902725419
38.93273480007105
38.93269291824854
38.60840419156873
38.6089798873095
38.28472736791672
38.28478285900403
38.60871213233493
38.28443360344345
38.60866404369351
38.60810067014264
38.60804616907812
38.28442929136173
38.28370449903086
38.60839947440287
38.60775756972993
38.28409102475987
37.31315694091923
37.31412877928099
36.99015116857852
36.99025520220842
37.31367829688701
36.98965437393638
37.31359018994718
37.63635680793115
37.96055720704538
37.6362820084593
37.95973613782886
37.63679501252869
37.63586168964078
37.96017291274362
37.31265456356734
36.98965616282204
37.31257129914128
36.98843700615798
37.31315618721065
37.31209146635214
36.98907959366026
36.01928007410162
35.69743926595484
35.69525663707498
36.01915255050028
36.02017917817152
36.01830435676268
35.69638658297153
36.34313510923249
36.3446382160089
36.66687905605287
36.66700271589658
36.34394420872999
36.66630715051396
36.34379617672147
36.34237412710883
36.34225929803845
36.66631262714413
36.66491119073244
36.34314587060421
36.341528352427
36.66564706960875
38.93373223727048
39.2575882453656
39.25756421495316
38.93339942975347
39.25772441702238
38.93357831204034
38.93355068563367
38.93396019480826
39.25798071516974
39.25797233620285
38.93407605850027
39.25792558197419
38.93402280079215
38.93401313740302
38.93383610872794
39.25765453566534
39.25786248288527
38.93370415296742
39.25781624685613
38.93365274715325
38.93388842892552
38.60984212871983
38.60946417840207
38.28586892339598
38.28583180672307
38.60966750868604
38.28606777356165
38.6096355776247
38.60998203969015
38.60987474362251
38.28602626830977
38.28630861919026
38.60980522496734
38.28622778654214
38.6100526702443
38.61010145179979
38.61023339523624
38.28644574256511
38.28643266350831
38.28636399106312
38.61017283692416
38.61016162873049
38.60996005150709
38.60980963460758
38.28596354344815
38.28626992207689
38.28620216594548
38.60975131493701
38.61001947570842
37.63914540824401
37.96237839993058
37.63898567107073
37.96270194929521
37.63888034451103
37.96260901632124
37.63925277594452
37.31561406644564
37.31495861923195
36.99214531856005
36.99207301345908
37.31531298651587
36.99249422927808
37.31525243329732
37.31586029654259
37.31567639816065
36.99242638209656
36.99292712898063
37.315554236499
36.99278150515587
37.31598498964657
37.63932488605548
37.96285908227954
37.96284372070277
37.63952493321874
37.96276502324122
37.63943364248588
37.63941547392698
37.63910994200565
37.96230496836375
37.96265654897858
37.638880992182
37.96257897409132
37.63879381072353
37.6391991459549
37.31606774174785
36.99317023281247
37.31629979604992
36.99314422300237
36.99302246007615
37.31619415790657
37.31617250756463
37.31581812105004
36.99230357093177
37.31555208295346
36.99285057915596
36.99273095557667
37.31545153926915
37.31592117050004
36.02467985229313
35.70208089570639
35.70192053283635
36.02344762017037
36.02411932110114
36.02398980549049
35.7027453727549
36.02554316519062
35.70406792588788
35.70400795676267
36.02598732108544
35.70377556710525
36.02578791682583
36.02574015203484
36.02506146215815
35.70235757316451
35.70342725885382
36.0245459725196
36.0243590243869
35.70319827648168
36.02525454903569
36.34698516524116
36.34594208052224
36.66919888576286
36.66911185237421
36.34650927454338
36.669605273437
36.34640360087089
36.34738333413635
36.34709488849448
36.66952822646256
36.67011349759878
36.34689759445975
36.66994241325016
36.3475856116864
36.34771358506745
36.34808796959232
36.67039751563776
36.67036599056244
36.67022374476934
36.34791919975765
36.34788061339719
36.34730878484533
36.34687626183151
36.66938014929384
36.67002088324477
36.66988130912881
36.34671745516489
36.34747250432778
38.93312182661857
39.25744309769706
39.25722859741907
38.93346352393129
39.25718530482614
38.93341330244819
38.93317062149927
38.60903882870279
38.60919896805564
38.28496799220537
38.28552453662194
38.60887660454377
38.60936620153517
38.28515182820968
38.60914834172412
38.6095360039279
38.28565284537942
38.28533862685016
38.6094791125556
38.28527602536153
38.60920351605556
37.3142201660667
37.31449966518126
36.99056077807347
36.99152884706712
37.31394674576873
37.31478416251137
36.99087533872576
37.63788845272983
37.96194880376864
37.63846824135776
37.96158904711184
37.6383836596253
37.9615177621665
37.63796993389474
37.31440537932561
36.99175150780855
37.31507425078473
36.99119639875945
37.31497692163964
36.99108864252347
37.31449888640763
36.0223913175867
35.70128487054139
35.70021633872562
36.02363833847885
36.02345944175431
35.70001746765747
36.02256071922319
36.34476524685505
36.34521317855125
36.66735154410747
36.66847604763363
36.34434352274086
36.3456563956798
36.6677149661844
36.34505188715202
36.34611022427322
36.66873444810588
36.66808640058147
36.3459577475061
36.66796168117852
36.34519689796897
31.37417385801569
31.31454862037478
31.31827944738533
31.36751073586337
31.38255006001084
31.40707305899653
31.40381538316663
31.38513767294979
31.37568648025172
31.35795531477743
31.32089814781621
31.37807235855439
31.45247322839513
31.47791300073689
31.63290324770296
31.64409786161395
31.47677104890147
31.6429647322757
31.45466706074344
31.48583812375449
31.47133415927122
31.6309867081646
31.63755408224207
31.47455055632323
31.4820608827791
31.64075640206969
31.45730736793949
31.46834585877527
31.64724344720393
31.70272004666536
31.45070533521859
31.65090705597462
31.47643154355512
31.45880427978062
31.4812646260946
31.69045340883492
31.70412867200879
31.65347024349241
31.47833536376771
31.46116697496734
31.29515190951976
31.30306785440579
31.30618212999885
31.29256041155475
31.28668701029146
31.2781461618722
31.27751574684914
31.28744715720162
31.29694751357962
31.30943280711732
31.30834641983304
31.2978625019217
31.45580629284262
31.46683365869609
31.62338131012521
31.61520684897498
31.46587076311262
31.61448608107868
31.45662015057425
31.4542109051979
31.4612515843754
31.62173093380403