/*--------------------------------*- C++ -*----------------------------------*\
  =========                 |
  \\      /  F ield         | OpenFOAM: The Open Source CFD Toolbox
   \\    /   O peration     | Website:  https://openfoam.org
    \\  /    A nd           | Version:  7
     \\/     M anipulation  |
\*---------------------------------------------------------------------------*/
FoamFile
{
    version     2.0;
    format      ascii;
    class       surfaceScalarField;
    location    "0";
    object      phi;
}
// * * * * * * * * * * * * * * * * * * * * * * * * * * * * * * * * * * * * * //

dimensions      [0 3 -1 0 0 0 0];

internalField   nonuniform List<scalar> 
36784
(
1.795179155463657
-6.178173803889909e-05
3.069353362967896e-05
1.795117560488535
-6.468389498925396e-05
3.211964824865589e-05
1.79505044276172
-7.073721035531877e-05
3.509267906045135e-05
1.794974481670948
-8.047647622224197e-05
3.987183706936297e-05
1.794885600520331
-9.480424022504547e-05
4.689396850739795e-05
1.794778554457409
-0.0001151374774558748
5.684379495818352e-05
1.794646338392255
-0.0001436562990597159
7.077330697494806e-05
1.794479297415926
-0.0001837227577160438
9.030369598322382e-05
1.794263717734125
-0.0002405892996074054
0.0001179681706941886
1.793979356393606
-0.0003225772131063063
0.0001577816885358628
-0.0004427845252251488
0.0002161249358323403
0.448396455415519
0.4484020867301404
1.795176396600695
-3.143487314346891e-05
3.135177246349485e-05
1.795111806055601
-3.293232333010092e-05
3.283897339656505e-05
1.79504118437211
-3.605882930497894e-05
3.594330240367953e-05
1.794960861340314
-4.109772705410881e-05
4.094428268340163e-05
1.794866271236671
-4.852913882391019e-05
4.831500218481133e-05
1.794751443752645
-5.911120116763868e-05
5.880120771450947e-05
1.794608250214964
-7.401902864501153e-05
7.355626719629532e-05
1.794425238659542
-9.508095340541368e-05
9.436975100831075e-05
1.794185777973851
-0.0001251847740633139
0.0001240561600494965
1.793865084317517
-0.0001689995979126899
0.0001671160409007254
-0.0002344048189975494
0.0002308610041264143
0.4483511069867621
0.4483556138006474
0.4483563898196392
0.4483627329999984
1.795174973087114
3.168834348938356e-05
1.79510883392085
3.32072307855924e-05
1.795036394269928
3.63797618705599e-05
1.7949537968545
4.149622928650843e-05
1.794856211663657
4.904898420848565e-05
1.794737271999139
5.98163026923788e-05
1.79458822822275
7.500587274032435e-05
1.794396621215022
9.64991665499847e-05
1.794144126506929
0.0001272750241696486
1.793802908479229
0.0001721782098203104
0.0002394829482552508
0.4483304255222061
0.4483288173520758
0.4483345330949999
0.4483352059303704
1.795180685262636
-6.103896828020559e-05
1.795120749670815
-6.387219425601401e-05
1.795055569384033
-6.977735012011204e-05
1.794982014340036
-7.92663073477931e-05
1.794896273739752
-9.320071767149332e-05
1.794793496701814
-0.0001129286941271915
1.794667288720248
-0.0001405159515961587
1.79450897321086
-0.0001791345406735892
1.794306425857222
-0.0002337194918021175
1.794041941433122
-0.0003120441449760401
-0.0004261560538384845
0.4484208582604575
1.79517799192719
-3.105507974510147e-05
1.795115136082003
-3.251677439160867e-05
1.795046548944057
-3.556631979418259e-05
1.794968767941214
-4.047489956349184e-05
1.794877519832141
-4.770089896973633e-05
1.794767271565163
-5.796574789437154e-05
1.794630576924007
-7.238326502593371e-05
1.794457083391691
-9.26780787061993e-05
1.7942319684838
-0.0001215525440250942
1.79393346379976
-0.0001632873462256159
-0.0002246756464480452
0.448376437065835
0.4483812081870064
1.795176602403728
1.795112237107901
1.795041882725414
1.794961898725532
1.794867761810153
1.794753565912927
1.794611284166749
1.794429634603119
1.794192294337456
1.793875106546864
0.4483563474761631
0.4483567483397089
-9.332701274342579e-05
0.1120462822561317
4.749599943777268e-05
0.0001372744941744038
-0.4482717745738753
0.1120477914171784
0.1120439471501632
0.1120423102695625
0.1120827459857971
-9.419572570694369e-05
0.0001278056506954781
-0.4483008531945316
-9.192395386392617e-05
0.1121105446948012
0.1121076499540687
0.1119268335200538
0.1120400664641994
-4.781673800672415e-05
4.843536296288157e-05
-0.4482550578169189
0.1120397702011869
0.1120404993038599
0.1120407762100834
0.1120476135166866
-9.541920714510915e-05
4.635312809843522e-05
-0.4482765602061782
0.1120482352318137
0.1120465430882642
0.1120436456252088
6.541456449110799e-05
0.1120003316479412
8.493008366423915e-06
-5.876208043053797e-05
-0.1120154771403659
-3.313363129025809e-05
6.324372892585473e-05
0.1120113161761491
-5.598122681581482e-05
4.071624429258236e-05
-0.1120261612912774
3.57421551579488e-05
0.1119792381021227
9.281176593435675e-06
-2.715382021156439e-05
-0.1119971076136661
3.404498517173135e-05
-3.591548907877495e-05
0.1119907650103755
4.40241044810108e-05
-2.597387038540312e-05
-0.1120069447405587
0.1119211531905009
0.0001005426597136526
1.324971745182255e-05
-9.078109720443962e-05
-0.1119441644704597
-9.572590405387959e-05
0.1119501639737841
-4.937385096735852e-05
0.0001040365259292741
6.037133161207452e-05
-0.1119694720763196
0.1119389945643885
-5.10460094153139e-05
-8.637369238197286e-05
6.240157077695821e-05
-0.1119597023374865
0.1118845549913452
5.56683710233864e-05
1.458288740372396e-05
-4.239291384947735e-05
-0.1119124133359239
0.1119051463948573
5.286909056145821e-05
-5.608318234775868e-05
6.849360580450744e-05
-4.024593764564124e-05
-0.1119301799712353
-0.0004939075559954532
0.1113540744640352
6.460402639711703e-05
0.0005158218760927549
-0.1114405928105271
0.0001126185404187049
1.488859258994814e-05
-0.0001018683693185807
0.1118955144267595
0.0001033624573807402
-0.0001004192173437309
-0.1117676669363163
-7.948062998330834e-05
0.1117218553405586
0.0001223489857004912
0.1112679720612495
-0.0004619670603270602
6.958934184633024e-05
-0.1113695018988827
-0.0001068953134506501
-5.523411008034898e-05
0.0001159497446343656
6.744430659590029e-05
0.1119288993460401
0.111474396735262
-0.0002371695756082841
-0.0004417586538108154
0.0002819703127234566
0.0004626931737801652
-0.1115401319923419
-5.721869798961326e-05
-9.662639550610377e-05
6.984724552339117e-05
0.1119160970988098
-9.766243029751844e-05
-0.1117822294004807
0.1117390642132818
0.000125169499007427
0.0001190205757948572
-0.0002722498852236825
0.1112107607910211
-0.0003008577176053615
0.0003269658354767096
0.0003561697106078893
-0.1113207887342788
6.2714626664572e-05
1.647472159809146e-05
-4.779884754962857e-05
0.1118531644906255
0.0001058055082932185
-0.1117553028069764
-8.137670632581141e-05
0.1117072964230559
-7.684163547523778e-05
0.1109771953381777
0.0003071321807474092
8.59635611040584e-05
-0.0002376026289981548
-0.1111326884510468
5.938690982476761e-05
-6.320644209035982e-05
7.708244710667798e-05
-4.524553048085569e-05
0.111877129010491
-0.1117703572720199
0.1117251244150967
0.0001280931162876003
-7.471718148482733e-05
0.1111620119884407
-0.0003126771262445227
0.0003696804842989295
-0.0002108258323948801
-0.1112804393993887
-0.0005800099584536865
7.611045949197628e-05
0.1112557698000816
0.0006022041628197517
0.0001336920767448027
-0.0002477210594121278
-0.02775940741485601
-0.0001238135716742457
0.02774115434075259
0.0002560956284435511
-0.000277490906664907
-0.0005136083662749968
0.0003284659392833869
0.1114018580466868
0.0005351720221484417
-0.0002384294326584624
-0.02778760908248704
0.02775637335325286
0.0001530284270344435
0.0002503288115617036
-0.000545199180866372
8.257020115373811e-05
0.111150591082339
0.000141926270902801
-0.02773577474600292
-0.0001288112851524267
0.02771848869102989
-0.000243549990219196
0.0003275575392936117
0.006644221268260974
-0.0002228751328215642
0.0002362749439372398
-0.0003367871801642614
-0.006648391438507236
-0.0003209986877869265
-0.0003583551760090208
0.0003847644959544668
0.0004224276267984096
0.1110829225320025
-0.02775183587276704
0.02773431744014712
0.0001583926755018618
-0.0002373774046988798
0.006687052105167854
-0.0002071766815417639
0.001283072112499585
0.0008792431252141917
-0.02684413699130625
0.006699609570366379
0.006692328848294386
0.00670385447091707
-0.0003188986261876553
-0.0003165600364730702
-0.00032146420163379
-0.0001988715199946335
-0.0002026805475640286
-0.0002078140884718043
-0.0003641697785146015
-0.0002236943219419991
0.0003686957323270261
0.006668305783043561
0.0002379146902338761
-0.0002373128657443495
0.006633001806209628
0.0002491655368692911
-0.000364802987631412
-0.006629784169244729
0.0003762394634667869
0.006618227467780649
-0.0002262629445398721
-0.0003757326832270206
0.000367090663191331
0.0001039426864909983
-0.0002846150582851284
0.1107907770467181
0.0001947439474135215
0.0001674579763902596
-0.02758537063218434
-0.0001770035889577506
0.02755030710091033
-0.000150134803578695
0.0003476333136390944
-0.0002139093742733499
-0.0003474161047252559
-0.006638967136748418
-0.0003741223248702134
0.0004394101173061155
-0.0002496127865964727
0.1110253382946543
0.0001613161409503032
-0.02760767000196924
0.02757558798795278
0.0002100937457505967
-0.0001445839253060804
0.006662057468312546
0.0003497452777436048
-0.0002031970559673934
-0.006668149058026984
0.1120075499758322
7.140867267807495e-05
8.250732725752615e-06
-0.1120217948167514
-6.429871793994956e-05
3.219870529368304e-05
0.1120138473125625
7.011548476058882e-05
-2.446637958541959e-05
-0.112027396405086
5.106062034592044e-05
-7.044444064111671e-05
-0.4482395793829497
0.1120438558162433
0.1120338112739105
0.1120347955370212
0.1120429525535385
-3.231645508841585e-05
-8.302269091914338e-05
-2.615373310480701e-05
-0.0001957129877192404
0.0001019695121371456
-0.4482488447872655
0.1120506212491703
0.1120366111101275
0.1120347049474018
0.1120469207914128
4.320306605189173e-05
-2.622612089028115e-05
-3.440642466826654e-05
0.1120071827341302
-2.483652909236601e-05
-5.683579919189706e-05
-0.1120229427551767
0.1119832135380996
4.394114501673889e-05
9.147761100232303e-06
-0.1120005602890579
3.525501082179971e-05
-3.479028192226859e-05
0.1119900580842081
4.273393793025202e-05
-2.694829612684166e-05
-0.1120063084549212
-2.591697882375725e-05
0.1120310512229157
6.653263730108937e-06
3.449474833533243e-05
2.540314673884342e-05
-2.574136503002809e-05
-0.112055870176135
0.1120349451900893
-2.198922441323755e-05
4.325242875086014e-05
-0.1120393843057748
0.112020781232852
-6.411165392883332e-05
1.227028618495174e-05
0.000154722582022003
-0.1119424506230301
0.1118886358268938
-0.0001719010308966484
-0.0001247197427149534
0.1120179405958552
6.954789480921296e-05
3.997045843817651e-05
-0.1120320165149504
-0.0001982629870980191
-0.4482700649178142
0.112045700389837
0.112047195111399
0.1120484814842507
0.1120482101032929
0.1119946042057052
4.180907802603538e-05
4.318493005313721e-05
-0.1120102982178484
-2.494592469959669e-05
0.1120385961349104
4.871549465404214e-05
4.578342767596991e-05
-0.4482348487626489
0.1120404814686638
0.1120416275469978
0.1120249494393966
0.1120457323207811
6.597994755099673e-05
1.099918896839414e-05
-2.660531372707803e-05
6.855900497694523e-05
1.081703211745777e-06
-0.0001961972448687663
-3.908325112076533e-05
0.1119862236079339
-2.738317995519662e-05
-2.64732602872405e-05
-0.1120030729387338
0.1119731105969635
9.182461092053637e-06
9.477289752364909e-06
-0.1119917703328408
3.676917918350609e-05
0.1119803831047896
8.961802848338369e-06
-2.798550842619818e-05
-0.1119981292512513
0.1120277619923868
-2.037832156241538e-05
6.76581459005411e-06
-0.1120373798394844
0.1120236948144413
6.877473420468679e-06
6.81082872454765e-06
2.648755230616473e-05
-0.1120412047768094
0.112028694037356
-2.084496628854072e-05
6.871200749752315e-06
2.6108061988575e-05
-0.1120403949158218
0.1120317661718531
-2.182428984876201e-05
-2.139639317516766e-05
0.1119850574533263
8.810936928248068e-06
4.510259588386134e-05
-0.1120022029612304
0.1120325529359558
6.740317176696258e-06
3.481118896608848e-05
-0.1120564691892587
0.1120356940182834
-2.134880011909334e-05
4.328610836878966e-05
0.111933229071207
0.0001092047733342729
1.280898499386289e-05
-0.1119547001698464
-9.761280076975172e-05
0.1119435511413105
-3.767434341347838e-05
0.0001060636596029458
-0.1119637015077295
-7.263289238379187e-05
0.1119916562918313
7.932202278705787e-05
9.204553542980808e-06
-7.096329637258453e-05
3.582615250508088e-05
0.1119986513947513
7.755633291170541e-05
-2.722327128364078e-05
0.1119320291803234
-3.895844760233512e-05
-8.809753292011966e-05
-0.1119536320100618
0.1118916012469864
6.824427142724107e-05
1.432633603566323e-05
-0.1119185034834338
5.51134088725555e-05
-5.39634021639579e-05
0.1119038317019001
6.617423201110807e-05
-4.209029890899022e-05
-0.1119290656417089
0.1119835160686922
9.473989959961629e-06
-6.529130317072306e-05
3.679666696498893e-05
0.111990899831353
-2.792689191971724e-05
-6.355016871287177e-05
-3.971759113419182e-05
0.1119639590919927
4.879863769999715e-05
1.017339953021221e-05
3.928376098658268e-05
-3.862475819777084e-05
0.1119719002268784
4.745522944873509e-05
-2.995637493122189e-05
-6.986814863135638e-05
0.1120031143097719
7.645607299490554e-05
4.406451416658331e-05
0.1119116642141176
6.484609818063864e-05
6.732284812881275e-05
-0.1119358506610109
0.1119955907249697
-6.254350115837657e-05
4.519747060172092e-05
-3.788418050143805e-05
0.111977070695044
4.656704915711575e-05
4.813440294472331e-05
0.1118971083674527
-4.283726687257121e-05
-4.108544130219698e-05
-0.1119232322438002
0.1118736361832422
1.438207820206999e-05
1.497993934759877e-05
-0.1119029963778999
5.758555295952507e-05
0.1118866928052604
1.393512350130248e-05
-4.399407395839973e-05
-0.1119142180307637
0.1119593771871887
1.033350552503073e-05
-3.019018172102852e-05
3.994005724426822e-05
0.1119674735010747
-3.044281470197549e-05
-2.937189390072872e-05
0.1119523184205828
1.021829329823992e-05
1.057428559770137e-05
4.09115635147117e-05
0.1119606927053987
9.94659169251113e-06
-3.116800015252847e-05
0.1118950498677584
1.364798546351139e-05
7.030763879534163e-05
-0.111921418867853
0.1119727141761686
4.892721531089946e-05
-2.882050441860483e-05
0.1119660831819296
9.765796560125601e-06
5.01193413189327e-05
0.0001220732109832312
1.436442001314716e-05
0.1119094099805285
-0.0001091347617592219
-4.219289731644019e-05
0.0001183472811603211
0.1119212974090136
0.111820454396474
-0.0001611712482277884
-0.1118534150684507
0.000173487931406027
2.06439888087215e-05
0.1118390411827352
-0.000155194738057723
7.873350526566033e-05
-0.1118693656958865
0.0001671567136857869
-6.037096774792749e-05
-0.0001828294784041447
0.000196267551787546
0.1117835576759365
2.345864701782237e-05
0.1116431313398607
-0.0002728736147582822
0.0002901071488909692
-0.1116956054401061
3.524056610074723e-05
-0.0001756066665260504
8.917970693807338e-05
0.0001886437449133905
-6.84828466295951e-05
0.1118053072439178
0.1116789427452662
-0.0002596853112056349
0.0001323905220928542
0.0002763623567807195
-0.0001022219198962661
-0.1117257883930254
-0.0004616081992824165
0.1114288973465464
-0.000185101550138577
0.0004829615235695752
-0.1115023186963825
-0.0003143578426436121
0.1115838511489872
0.0003329297428345805
4.070829061224859e-05
-0.0002980377549298237
0.0001521896964944531
0.1116265572597541
0.0003160057857772918
-0.0001177722418547817
-4.371941411066145e-05
-9.867605487587415e-05
0.1119080711894114
7.679977495972468e-05
1.616928418163086e-05
0.1118613468144645
6.205454208495299e-05
-6.068673661019375e-05
7.433810172052802e-05
-4.744424466379439e-05
0.1118755700393752
9.045727436499077e-05
-8.805508800635634e-05
-0.1118080729513036
-6.944291294584702e-05
0.0001074467414928223
0.111744651011243
-9.161246593691884e-05
-0.1117885659314712
2.377905168289637e-05
0.0001117483344763029
0.1117987961662994
-0.1118348074003261
-0.0001467064289475957
2.154641460679202e-05
0.1118186292542678
8.211215082084583e-05
-0.1118517640210932
-0.0001411881632441129
-6.298395891199294e-05
-0.0001047625533733554
2.726847706209185e-05
0.1116945539445435
0.0001275911429359858
0.1115420333602035
0.0001583698288333431
-0.0001526895448597183
-0.1116102287360832
-0.0001225231818848391
0.00018503827380967
0.1114948162019615
-0.0001609095221609452
-0.1115711406424165
4.233666534887428e-05
0.0001948972972611794
-0.0001668299591828378
0.1117582457677315
2.455087919273096e-05
0.1116016471119661
-0.0002511851605563794
-0.1116605814628624
3.724589662721071e-05
9.3250800224709e-05
-0.0001601394568369193
-7.16378604369856e-05
0.1117815491046148
0.1116405903015369
0.0001397436874940476
-0.0002388292861640008
-0.0001079633520258108
-0.1116932266620889
0.1110371538206748
0.0003682041472901036
8.269626583884201e-05
-0.1111809220531227
-0.0002855871400667931
0.1111458795199631
-0.0002357337841744344
0.0003425510556878322
-0.111267967369093
0.0002547601437110896
0.111351810211841
-0.0001990437039899771
-0.0004311290168481258
-0.1114380058340953
0.0001843712723277982
-0.000177180460506334
0.1114635828079073
-0.0001430010036268742
0.0002142607441177827
-0.0001874940006197256
0.111406145479954
4.956007910611735e-05
0.0002266046435263663
0.1115344731181302
-0.0002903795298299879
4.319568091616487e-05
0.000161248024180218
0.1115811928179475
-0.0002750214238290498
-0.0001248668717721731
0.1118508288836395
-0.0001513822074821897
-0.1118795132314609
0.0001631151969565536
9.568486350435061e-05
-0.0001710127642151068
0.0001837911618599573
0.1118190529560525
0.0001081772366962323
0.1117012845258767
-0.0002513878537035523
0.0002677052287818207
-0.1117447092385948
0.0001594978597227061
-0.0002878161585299557
0.1116530574844692
0.0003053922416791002
0.0001828406546578007
7.275980150467376e-05
7.56922018592121e-05
0.1118846536626101
-8.579030184030507e-05
-0.11182045736542
0.0001097683723987329
0.0001047071686108296
0.1118311983269091
-0.1118625445992247
-0.0001376701495166692
9.974636501884699e-05
0.1115713739041251
-0.0001475279403823998
-0.1116346482929949
0.0001903236046218526
0.0001788485534877906
-0.0001558869862563487
0.1117962649065589
0.0001130584424480223
0.1116648562210489
-0.0002310629319653227
-0.1117136695183696
0.0001682320630053775
0.1114025470226845
-0.000412181264160285
0.0003024985647408626
-0.1114798628335068
-0.0001707300522761658
0.1114990532182478
0.0002208747058403966
0.0002065473046410784
0.1116101413079971
-0.0002654127880170886
0.0001935595666285105
-4.833220021201132e-05
-4.624279834969565e-05
0.111867790187258
1.623184945503876e-05
1.694811439860657e-05
0.111840458556772
6.499154000981565e-05
1.569930521046545e-05
-4.970844753397593e-05
0.1118557123794908
9.246431655348713e-05
-0.1117975242314238
-7.099730467761977e-05
-6.730067557756512e-05
0.111731500923808
-0.1117773912955702
2.43167187647491e-05
-7.003881300517327e-05
0.1117109449560036
-0.1117599637178213
2.386875197218744e-05
2.515388367281217e-05
0.1117359837220882
9.558780764074015e-05
-0.1117810792497522
2.292841243029799e-05
-7.341696863427671e-05
2.792591036156258e-05
0.1116790018758795
-8.018941590377807e-05
0.111517542444556
0.0001629440169445634
-0.111589743460037
-0.0001261006030884638
-0.0001173319432099654
0.1114682317234994
-0.111549035529773
4.358688269665728e-05
-0.0001236925985694605
2.736603741775487e-05
2.895149361609854e-05
0.1116546317845959
0.0001096153562905045
2.621465995505954e-05
-8.433418219802431e-05
0.1116844921512765
0.1114262708441611
4.241297416899104e-05
-0.1115142219530458
4.554382244821842e-05
0.1114788518807952
0.0001701269462159871
4.022031338401789e-05
-0.1115574802655299
-0.0001317131822155237
0.1110926760091058
-0.0002451050446912439
-0.0002212180160865631
-0.1112246172147433
0.110884175250666
8.188054490869313e-05
9.090958045163011e-05
-0.1110569582732879
0.000331355983480552
0.111006978674995
7.645024792693704e-05
-0.0002595186644451892
-0.1111552590532323
0.0001900875918894972
0.1114341381737649
-0.0001474854826408753
-0.0001363782989435076
0.1113739682267223
5.113060304403996e-05
-0.0001443611069051827
0.1113231139560114
4.958020222779015e-05
5.358277004702377e-05
0.0001990854476396771
0.1113874632410123
4.683542663751017e-05
-0.0001545261263856047
1.535800542913015e-05
7.923617793305289e-05
0.1118654489483699
-0.1118103020830805
0.0001121767232046267
-6.555789763669839e-05
0.111751812685867
-0.1117944746908126
2.233004616167928e-05
0.000115923392662323
0.1115481717922311
-0.1116151642943723
0.0001957428098679086
-0.000113334231154206
2.54841068739187e-05
0.1117032973201511
0.0001326508171194535
0.1115115292274638
3.88389182168837e-05
-0.1115844890140334
0.0002042535118475112
0.11108280084615
7.28794024567359e-05
0.0003915008292356688
-0.111215817861666
0.1114712842975685
0.0002276179198635655
-0.0001313728856309271
0.1114272766255695
4.510411191452088e-05
0.0002382400614949915
0.001667077677977988
-0.02697831949392704
0.02692404805366067
0.000149972786572271
-0.001762779024280089
0.001531072263936584
0.0005368403917418475
0.02708029968618349
-0.0004244738645573642
-0.00161244154761345
-0.02711129692968819
0.0001940032170167276
-0.0004053950593864091
-0.006613471166829688
0.006587557687773356
0.0004163773740321471
-0.0001790720526060385
-0.0004503030039835809
-0.006545733824805845
0.006508539225846969
0.0004595388579747849
2.795874496810725e-05
-0.02718656557370058
0.02716891854686754
0.0001288155081630291
0.001555909196603714
0.0004640101224070371
0.02728926665815285
-0.0003656976199340041
0.001435491819077279
-0.02729199871583367
0.0002932869593662226
0.02773757940538512
-0.0012262751251857
-0.0002290646889551322
-0.02769734188799314
0.001121815337380284
0.02768549830551867
-0.001316917078168031
8.002007107045922e-05
-0.02764793515740446
0.001199333858982154
-0.0005386953338319523
-0.0002173792485721248
0.1113468396844111
0.0005606413376998536
0.0004598715048953826
-0.0002013920889382074
-0.1111519642834246
-0.0003653975255503014
0.0009020413119212884
0.02775390741948804
0.02776350598942964
0.02776612613357154
-0.0002515068864133232
-0.0002216377645142872
-0.0002129612253607832
0.02770324836017371
-0.0002553981338360573
-0.02772323010968383
1.754655626446648e-05
0.0002578333270748333
-0.0002799541568233047
1.892232975079517e-05
0.02768229391361803
0.0002819862735970048
0.02762125736205939
0.0002639611073055484
-0.0004693149664738025
-0.02763875653154977
-0.0002427598040157271
0.0004656128326677698
0.02748376188547521
-0.0005642322836683592
-0.02751783499979959
4.098671816513988e-05
0.0005573186798265274
0.0004174492207811308
0.0278378053152794
-0.0008884171561664761
-0.0003932900155386871
-0.02780386541408602
0.0008303180497273773
-0.001459025659409026
0.0001124743594348541
0.001375808855372513
-0.02721582312912771
0.0002922565548821349
-0.000516772472279147
0.02760441894870187
-0.0002696598822168922
0.0005110142129478092
-0.0006291335279478807
0.02744779986532447
4.606004837993505e-05
0.0006190354996838181
-0.0008321647728292156
-0.1112357785854159
0.0005321474026343876
0.0008457458735525138
0.02780100379782664
0.02780108808878491
0.02776022061775774
0.0276531865430965
-0.0004464726342263964
-0.0276672376869652
0.0002810246069937846
0.0004434602783741972
0.02787650634718318
-0.0008232032826079492
-0.02784117112853253
0.0004330942101065197
0.0007722230745609282
-0.0004900613713896051
0.02764022487932974
0.0003100564685414405
0.0004852231214433544
0.001151540797941997
0.0007690828165816634
-0.02746851043037334
0.02748845651611314
-0.0007428223997344245
-0.001197747300531498
0.001448978124977221
0.0006273963442044762
0.02717273153987211
-0.001521739526293334
-0.02719052609107923
-0.0003920783560706539
-0.006643995389937411
0.006609206858857544
0.0004034195668698379
0.0002174505372769065
0.001080997496720684
-0.001237688569241756
0.02704822401214033
0.001243552001812268
-0.001057616106134021
-0.02707746883530126
0.02788316107926828
-0.0009621442241553296
-0.0004275844592748779
0.0004517321009812219
0.0008926408183927973
-0.02757943186944091
0.001094528097324022
0.02760997572403575
-0.0006508820379176365
0.0006773508838924001
-0.02735506244397845
0.0005447212677850598
0.02736084150498665
0.001362487918535228
-0.02772730638042605
0.02776896383433903
0.0003483130027200236
-0.00117080959050519
0.001074126093158013
-0.02756104684660521
0.0007775087986637868
0.02759070814568401
-0.00108616723153123
0.001048079950326193
-0.0007529259927347774
0.02784666434876073
-0.0007815642773860871
-0.02780061876812823
0.0007625003347648977
0.0007259443547271317
-0.00111354297085567
0.02722823742279417
0.001121294857907996
0.001077405067256114
-0.02723239688045202
-0.0007834380221920969
0.02765946062696561
0.0007931647474513206
-0.001014413860893498
-0.02761959635489096
0.0009648228635621313
0.0004384358653885319
9.962547034074963e-05
0.1108661831480224
-0.0003387906509015279
-0.0002823691968163696
0.0004045130915831442
0.1110041710999674
0.0002997228521076025
-0.0002351129222381908
-0.0005056483930150636
0.1112541533409958
0.0001074798072382525
-0.02770593657874527
-0.0001167982340934581
-0.0002219118294154049
0.02767869233080671
-0.02770030489969466
1.855508765019531e-05
-0.0002523406526184729
0.02760116000049029
0.0001701242051202972
-0.0001516686085035585
-0.02763148554336504
0.000166268096548801
-0.0001543981502867848
0.02751554102167282
-0.000172799114887125
-0.02755671789344361
0.0001891452763982711
2.483071026621661e-05
2.027150018988395e-05
0.02765472446080082
-0.0002762577870475414
0.0275737994175395
0.0002842040061245631
-0.02759616410579162
-0.0002617320573235144
-0.0004694222270557116
0.02741885913061433
-0.02746083169697802
4.440328623384257e-05
-0.000566663003574708
0.0001893010833871806
0.0001833612074722006
-0.0001719713220499342
0.02756792700798706
-0.0001918452143090279
0.0002097835441331005
2.78305086250328e-05
0.02746977218318402
0.02723320653549321
0.0004243794285164432
-0.0003495268318337437
0.0003799525042632006
-0.02729440169466591
-0.00039360994176845
0.0269466002073886
-0.0004290315165342824
0.0004658411904869192
-0.02705186293973254
6.845305839067175e-05
0.000687076641210944
0.001040667320032955
-0.0006585516757758025
-0.00107566653344101
-0.02746203618244569
0.0001291891853708835
-0.001528340495809531
-0.02703819384296446
0.0003159280701123856
0.02755151293239729
-0.0002919503049859967
-0.0005184637523196563
0.02737366795650623
5.014158533377866e-05
-0.0006340839392250455
0.006577131216430179
0.0001846521234073243
0.0003664819222018679
-0.0001723089753800499
-0.0003750261558653944
-0.006580930130799021
0.0004817156401544964
-0.0003909969322236488
0.02716655651366188
0.0004246419204893316
-0.0004487106066321052
-0.0004867407730895662
0.000528068793448155
0.02682602828055134
7.924390644182065e-05
-0.0004814727539577241
0.000354280173657623
0.1113158540886185
-0.1111068310080553
0.0005896097517294282
0.0277525612313016
0.02773958213403604
0.02775048580402092
-0.0001560648741606666
-0.0001307801922943875
-0.0001182267080864392
-0.0002324893855312968
-0.0002027131958428092
-0.0001743992040906858
-0.0001872551915278863
0.02762279956950231
-0.0001461865737434949
-0.02765195078494316
0.0001607936322106052
0.0001846683620564335
0.02760959748334211
-0.02762789634202789
0.0003021303085902865
-0.0004461000780555971
0.0001767784512101829
0.0275922219512279
0.0002044163913087938
0.02729790574459974
-0.0003306570773919713
0.0003595633891352495
-0.02735010225950561
0.0004476696316541604
0.0009540583933082001
0.0007001537431600126
-0.0009831358565263737
-0.02754504648543365
0.0275919354238634
0.0003346124967922039
-0.0004910837386463586
-0.0003685615871257743
0.02724195979772039
0.0004004077076723226
0.0005058154664249897
-0.001360183080678105
0.02740032833865508
0.000687919584641678
-0.02737284587195016
-0.0006337015478424564
0.001278482577173887
-0.00119103466150012
-0.02711533587604918
-0.00108942666242051
0.001181793446653706
0.006779160539844972
0.006774271438449535
0.006778123725497607
0.006768905078609212
-0.0007625330943266332
0.0275926840605233
-0.001104636541482096
-0.02755572465002543
0.001046772203042636
-0.0002058129832072677
-0.006598209233144631
0.006578347940687356
0.0002274080980611809
-0.0003938121784904541
-0.02693676113399259
-0.0003092366658529393
-0.000303966903834843
-0.0003013656436323558
-0.0002986985694949625
0.006713529524480412
0.006732127152058912
0.006721178525340652
0.006725384810806893
-0.0002994413233022833
-0.0002913292380914807
-0.0002896731144894833
-0.0002904706508567523
-0.0003184261041234902
-0.0002765880454258262
-0.006418210892022685
0.0002989894500131713
0.006381021188093802
0.0003332144034639913
-0.0001287193237724602
-0.006557900132449983
0.0004334554490441695
0.0001440123625590944
0.006542004903926106
-0.0004328532593059703
-0.0002851738454492259
-0.006396244207195804
0.0003082177844658148
0.006357235961270652
-0.0003024617972335522
-0.0001693268011405442
-0.0003302142810682024
-0.006281987339144751
0.00623495408395102
0.0003567521872597388
0.000189822150143091
-0.0002946540580727341
-0.0002631751217047501
0.110937592212931
9.910243688153141e-05
0.0001113438560040739
0.02766550198122803
0.02766878470224607
0.02766840711096504
0.02767104249432645
0.0003985492129007788
9.12267465763947e-05
-0.0003134342754805381
0.1108306444717062
0.0001749823570146592
-0.02761720399056381
-0.0001588280808089799
-0.0001359895264056236
0.0274964949209076
-0.02753995836904212
2.554707559033591e-05
-0.0001548827423779237
0.02742394310930152
-0.02747592283697919
2.381130150601982e-05
2.817018658096294e-05
0.02752639678514323
0.0001929268417030334
-0.0275651148131979
2.09556982273505e-05
-0.0001751625529289277
2.867084336857133e-05
0.02744808138959982
-0.0001721025264361637
0.02719173637995203
0.0004411017163019364
-0.02725786828157225
-0.0004093693337189426
-0.0003151273128328226
0.02688889079618549
-0.02700212894701206
7.133986654039943e-05
-0.000387133232281944
2.657421382188669e-05
3.17944384108689e-05
0.02736557611899216
0.0002153494330503229
2.317694328915048e-05
-0.0001959299764757548
0.02748380231128117
0.02667029598782112
6.066715156418853e-05
-0.02681315183319212
8.218703302310643e-05
0.02703383886737116
0.0005045639167254196
4.94059532031995e-05
-0.02711864394316078
-0.0004691643277393566
0.0004052661916853099
0.006551010076693771
0.0001218291783862016
-0.0001071516775421266