/*--------------------------------*- C++ -*----------------------------------*\
  =========                 |
  \\      /  F ield         | OpenFOAM: The Open Source CFD Toolbox
   \\    /   O peration     | Website:  https://openfoam.org
    \\  /    A nd           | Version:  7
     \\/     M anipulation  |
\*---------------------------------------------------------------------------*/
FoamFile
{
    version     2.0;
    format      ascii;
    class       volVectorField;
    location    "0";
    object      U;
}
// * * * * * * * * * * * * * * * * * * * * * * * * * * * * * * * * * * * * * //

dimensions      [0 1 -1 0 0 0 0];

internalField   nonuniform List<vector> 
12667
(
(0.9999835844129547 -4.12241903324671e-05 8.853903931638139e-06)
(0.9999500137267374 -4.313412225079112e-05 9.265283148650721e-06)
(0.9999141653614764 -4.711407980994452e-05 1.012288819051484e-05)
(0.9998743158234219 -5.350715081520635e-05 1.150149146231627e-05)
(0.9998284048543352 -6.289020145428133e-05 1.352710630021093e-05)
(0.9997738362670096 -7.616407344731145e-05 1.639724854562982e-05)
(0.9997071982737782 -9.470511827810119e-05 2.04153770120041e-05)
(0.9996238508219064 -0.0001206186039580991 2.604914307208393e-05)
(0.9995172853866183 -0.0001571714522748121 3.402928000793899e-05)
(0.9993780445183333 -0.0002095657193709965 4.551394861611401e-05)
(0.9991915013602932 -0.0002864494703416895 6.234373149009837e-05)
(0.9999828160293714 -2.531313148432605e-05 9.043780518315857e-06)
(0.9999476426496318 -2.650785238898653e-05 9.472780787470624e-06)
(0.9999099840713787 -2.90006487006903e-05 1.036826030875375e-05)
(0.9998679437660599 -3.301368451055499e-05 1.18108507740582e-05)
(0.9998192279060569 -3.892242620725923e-05 1.393701986100317e-05)
(0.9997609020527273 -4.731752910897149e-05 1.696188684072395e-05)
(0.9996890394339495 -5.911011054034134e-05 2.121815399893138e-05)
(0.9995981865565605 -7.570962845091939e-05 2.722204356008974e-05)
(0.9994805218740225 -9.932658035040444e-05 3.578543078350848e-05)
(0.999324510717755 -0.000133488530578767 4.820655025982457e-05)
(0.999112857910024 -0.00018389193399103 6.659452042108094e-05)
(0.9999824195600717 -8.536483387062771e-06 9.14086831424529e-06)
(0.9999464183974437 -8.942934495845285e-06 9.579008880459279e-06)
(0.9999078221751502 -9.791549516810519e-06 1.049416207804616e-05)
(0.9998646420903581 -1.115921932735331e-05 1.197006614033901e-05)
(0.9998144586058526 -1.317625206265919e-05 1.414874544475538e-05)
(0.9997541532747839 -1.604844636162045e-05 1.725470269972472e-05)
(0.999679515976919 -2.00948693566272e-05 2.163630944432436e-05)
(0.9995846397638357 -2.581209549027255e-05 2.78362980432649e-05)
(0.9994609509570418 -3.398466149268264e-05 3.671394927970614e-05)
(0.9992955932985319 -4.588121057149746e-05 4.966679129432024e-05)
(0.9990685636333758 -6.364249330255301e-05 6.908161968901511e-05)
(0.9999840104842886 -4.073098311176293e-05 2.621582239497734e-05)
(0.9999513280318623 -4.25957647884574e-05 2.742077386614738e-05)
(0.9999164814343728 -4.647880097315291e-05 2.993086047035683e-05)
(0.9998778416207619 -5.270846780718867e-05 3.396066593070336e-05)
(0.9998334754598881 -6.18354416448571e-05 3.987072258552974e-05)
(0.9997809705473857 -7.471654167034869e-05 4.822366916175783e-05)
(0.9997171948788233 -9.265497248341802e-05 5.987910165168114e-05)
(0.9996379509357193 -0.0001176341993957237 7.615366591792317e-05)
(0.9995374453637892 -0.0001527179960475702 9.909594162018029e-05)
(0.9994073702002283 -0.0002027677308935194 0.0001319526563509468)
(0.9992350658073424 -0.0002757845800654217 0.0001797532832941342)
(0.9999832603510748 -2.500829752394712e-05 2.677585595350678e-05)
(0.9999490144322701 -2.617459062405547e-05 2.803222275023096e-05)
(0.9999124056438643 -2.860625519249368e-05 3.065270553894221e-05)
(0.9998716399813095 -3.25159311872828e-05 3.486870014596345e-05)
(0.9998245629076989 -3.826207693274748e-05 4.107066193470034e-05)
(0.9997684432273665 -4.640668037654529e-05 4.987146236620651e-05)
(0.9996996660248362 -5.78131493411776e-05 6.221379487888377e-05)
(0.9996132740932328 -7.381118543486248e-05 7.955093429681545e-05)
(0.9995022558273926 -9.647473386703855e-05 0.0001041520038624042)
(0.9993564201320266 -0.0001290770859730299 0.0001396096057772643)
(0.9991607555415859 -0.0001767344703364282 0.00019161518362087)
(0.9999828733485187 -8.433367521298471e-06 2.706218445686693e-05)
(0.999947820023133 -8.830103674745238e-06 2.834521613528694e-05)
(0.9999102986273162 -9.657803888240864e-06 3.1023032605129e-05)
(0.9998684271945611 -1.0990046270285e-05 3.533594454860909e-05)
(0.9998199319794353 -1.295120934965506e-05 4.169031587492608e-05)
(0.9997619082517868 -1.573707297333009e-05 5.072578922033385e-05)
(0.9996904754863822 -1.964997265122018e-05 6.342945170894597e-05)
(0.9996002558908126 -2.515820027391699e-05 8.132821435431815e-05)
(0.9994835611107709 -3.299581893864877e-05 0.0001068154726071871)
(0.9993291169571717 -4.432597474145949e-05 0.0001437120224026363)
(0.9991201747311927 -6.099453345018142e-05 0.0001982433720314289)
(0.9986999585679108 -0.0002504809471702005 5.480307627447827e-05)
(0.9987852081874961 -0.0002386718118490102 0.0002602947626519465)
(0.998659924133752 -0.0001533113154715086 5.588695726507124e-05)
(0.9987116472695586 -5.034075430690625e-05 0.0002711542597742588)
(0.9982667341229583 -0.0005533601153007017 4.020358990040171e-05)
(0.9983632948150558 -0.0005312942324820874 0.0003495852098602806)
(0.9980908774602807 -0.0002802791475352304 4.39345637561641e-05)
(0.9981860805877177 -0.0002674580300690979 0.0003784122772060851)
(0.9975961105316007 -0.000852583319952623 6.272055598529958e-05)
(0.9978381659527192 -0.0008901880169010588 0.0005195038228612236)
(0.9977448562205561 -0.000811478307725437 0.0005370299654072056)
(0.9972915299464515 -0.00043698397503061 6.903141966276906e-05)
(0.9974624623210498 -0.0004149423007636482 0.0005897126066379474)
(0.9928250424962042 -0.004499590044701019 0.0003058178764486413)
(0.9973793145808942 -0.0009558037356986255 7.047854480431746e-05)
(0.9959214785813003 -0.0009927071117105273 0.0008655294076404615)
(0.9921245523946374 -0.004259600414263971 0.0003294170028287312)
(0.9976573643960344 -0.0009930495957121161 0.0005807262327869771)
(0.9938047964517218 -0.004030448463362228 0.002457466927066308)
(0.997550541098601 -0.0009069402415042135 0.0006014955905934203)
(0.996063059074591 -0.0009655900536750954 0.001081808077577119)
(0.9916525283884715 -0.002670245121578892 0.003110189009272393)
(0.9970275032618322 -0.000492473837347099 7.798684780187149e-05)
(0.9958015032001457 -0.0007899157367010198 0.0008860696550006454)
(0.9897734874424876 -0.002427465465408751 0.0004069280998948881)
(0.9972260548567242 -0.0004662665774887373 0.0006640894163173363)
(0.995948035104393 -0.0007681637872531482 0.001107212424050533)
(0.9912554862905123 -0.002152698158162545 0.00323009519781793)
(0.9920014280191675 -0.0052682220847791 0.0003602861988107474)
(0.9892938328728134 -0.008980499168985853 0.00487584660356253)
(0.9931886154734085 -0.004673610221066903 0.002868434773847973)
(0.9900678036203427 -0.008712083379247034 0.005429027295758172)
(0.9911490346966186 -0.005014194577806278 0.000390864857545934)
(0.9884685684142628 -0.00875687400822717 0.005126391598137997)
(0.9477591609016754 -0.03273727193296116 0.0503161241354949)
(0.9905925410678085 -0.003145045487522977 0.003696013267666827)
(0.9890370033391077 -0.008481225414653615 0.005686512598001743)
(0.9558969523053975 -0.03022726395548774 0.04861576385449733)
(0.9522326205851607 -0.032912584526546 0.05550562941518986)
(0.9466614143576828 -0.03468576008344103 0.05521025112599329)
(0.9445785775660922 -0.033052776698181 0.05695203509587658)
(0.9882498504150229 -0.002904152817615926 0.0004920363857394121)
(0.9827897993662064 -0.00566107026284174 0.007039006589442611)
(0.9460577882242535 -0.0311425904853406 0.05264156509956952)
(0.9901186962215817 -0.002542777923108079 0.003851041146341676)
(0.9836379142910584 -0.005452648411708314 0.007665565773529107)
(0.9504396521630505 -0.02925952168601302 0.05281828788052264)
(0.9983270537176165 -0.0006097162823454289 3.905672296248374e-05)
(0.9983800781051734 -0.0005989810624314237 0.0002682370881851007)
(0.9986363334661505 -0.0005091004055129784 6.04267696401212e-05)
(0.9986616318616943 -0.0005073006558350831 0.0001811007485006485)
(0.9983305326844449 -0.0005398036837698804 0.0002744149603918012)
(0.9981239788584205 -0.0003550873853929805 4.330301112553036e-05)
(0.9981800949223815 -0.0003454660195019479 0.0002944535240172364)
(0.9985409025060999 -0.0002692087576320183 3.149473955111e-05)
(0.9986009809423256 -0.0003074524497397678 0.0002243425853329069)
(0.9984643981562126 -0.0005996133657228554 5.808419495852207e-05)
(0.9974435682649112 -0.001638173876060196 0.001322803904079419)
(0.9984189070189766 -0.0005917504718160635 0.0003416291774289203)
(0.9987083656306885 -0.0004820894438497198 0.0002937398338753164)
(0.9982181328158357 -0.0003380234115974741 0.000371313329585499)
(0.9987370152859112 -0.00031518650395478 0.0003508574740484807)
(0.9986281395388996 -0.0004054089269430267 0.0003054820187740258)
(0.9981485893856812 -0.0002730046443291874 0.0002996386699832962)
(0.9980397876978022 -4.091925666337022e-05 4.486291007070725e-05)
(0.9981005325149847 -3.993288697563423e-05 0.0003065310656080666)
(0.9984985459073336 -0.0002063026648506787 3.202752468715838e-05)
(0.9984684493861938 -3.066223031456233e-05 3.224060934748282e-05)
(0.9985077719039733 -3.063325401352209e-05 0.0002240592596182026)
(0.9985178531227944 -0.0002100568535403951 0.0002268987069206004)
(0.9981395159057174 -3.925844789267769e-05 0.0003875586985437498)
(0.9985535268977175 -3.0051458069702e-05 0.000290171556318359)
(0.9986069872378537 -0.0002063000999878822 0.0003284931141177033)
(0.9976968730105314 -0.0009346835212752593 6.063424849187207e-05)
(0.997782982627024 -0.0009076298499380548 0.0004120624586066608)
(0.9981927494155839 -0.0006771465715843109 4.357185109120408e-05)
(0.9982519836294104 -0.0006618381358047188 0.0002984588108333345)
(0.997686766047339 -0.0008275685957539568 0.0004260566012661267)
(0.9973500688252159 -0.0005521836586667791 6.781697531696219e-05)
(0.9974516380298768 -0.0005353613406209853 0.0004601358948238861)
(0.9981243081271702 -0.0006146224098974175 4.48472897514685e-05)
(0.9981877419363699 -0.0005994233987913483 0.0003063837106959812)
(0.997960875380782 -0.0003944489772990958 4.81581042852413e-05)
(0.9980267638265929 -0.0003835925178933925 0.0003277639570056553)
(0.9982901120462979 -0.000652054886823283 0.0003781806706350982)
(0.9975167771623764 -0.0005245663583202207 0.0005795799147993776)
(0.9982270652357538 -0.0005900572192228354 0.0003881379293098694)
(0.9980700632181934 -0.0003763343921123892 0.0004138137937576624)
(0.9973956822994835 -0.0004235598329524576 0.0004682624815163555)
(0.9972009090257795 -6.40980206803346e-05 7.091095549171973e-05)
(0.9973090986857321 -6.210429928916676e-05 0.0004808503049369232)
(0.9979227418727952 -0.0003115253538377578 4.891600248539548e-05)
(0.9979899499817887 -0.0003030089536484868 0.0003331733583245621)
(0.9978639807678465 -4.553689403851116e-05 5.00557898116469e-05)
(0.9979337065281606 -4.432324561958357e-05 0.0003412050351103447)
(0.9973784283178447 -6.082338280164268e-05 0.0006054115586029207)
(0.998033541202637 -0.0002972516463277876 0.0004206734795510904)
(0.9979785577380107 -4.351556304340183e-05 0.0004309155258397377)
(0.9974950493552138 -0.001045841226405821 6.799725449993437e-05)
(0.9975940200651056 -0.001013713082505501 0.0004611929344226681)
(0.9967429726818933 -0.001491319421180886 9.772302394665313e-05)
(0.9968968794591108 -0.001436473312809615 0.0006584827124903553)
(0.9964316718346133 -0.00168934485602732 0.0001110468497884238)
(0.9952495432104511 -0.002508773694844606 0.0001668192478140247)
(0.9966114200445043 -0.001623184857343885 0.0007463316145223581)
(0.9955436294756693 -0.002388753533765335 0.001110591441369491)
(0.9934335356817351 -0.004209223169393462 0.001998916571636811)
(0.9947515400033247 -0.002884464572061102 0.0001927019673958343)
(0.9951014323830988 -0.002736321348596305 0.001277926335383945)
(0.997483736395634 -0.0009260535064892486 0.0004778135484038366)
(0.9970953653666779 -0.0006217087393337339 7.654099020898827e-05)
(0.9972132491388391 -0.00060170219733584 0.0005183374520633713)
(0.9963056843798459 -0.0008712017866276419 0.0007569239636016012)
(0.996116192211565 -0.0009062231954753626 0.0001125635582623592)
(0.9965635384401332 -0.001371974794839907 0.0001019948620441126)
(0.9967274819697778 -0.001320751390418717 0.0006868454898594242)
(0.9956972528533722 -0.001035422307164051 0.0001290815482231324)
(0.9944185684927327 -0.001504993993020011 0.001329671056653947)
(0.9940339721446977 -0.00158555824041708 0.000200410250172101)
(0.9962223619341418 -0.00155816407200634 0.0001162171796105609)
(0.9949086047896735 -0.002335328229575416 0.0001763119366966051)
(0.9964145879122607 -0.00149616309615397 0.0007805380386360923)
(0.9952276193604496 -0.002221497410057744 0.001172577701870024)
(0.9902556166255866 -0.003009456316373925 0.0003914616134324565)
(0.9911280179669671 -0.002799130421608034 0.002540078114911292)
(0.9928034242892493 -0.003978245420326844 0.002148183894467986)
(0.9937650800064217 -0.001744353378717717 0.001549691247120495)
(0.9932987151872882 -0.001845320217991957 0.0002346039247623431)
(0.9943466365690963 -0.002694850890741103 0.0002044765960531208)
(0.9947283703998085 -0.0025536854650984 0.001354390040012891)
(0.9969946279930232 -0.001401473844714447 0.0008256490829358154)
(0.99672520289306 -0.001581089113544051 0.0009342340527067732)
(0.9957275053695247 -0.002313199943193716 0.001381720150607075)
(0.9953190837596213 -0.002643475099137469 0.00158594249066535)
(0.99728863138701 -0.0005888765916006918 0.000652055592635099)
(0.9964257659594514 -0.0008489011945833051 0.0009478137124909992)
(0.9968315334639378 -0.001288084773895481 0.0008608687140347312)
(0.994658136050823 -0.001454409840065791 0.001650619803338886)
(0.9965361756822979 -0.001456741593612851 0.0009766117996342311)
(0.9954268521013847 -0.002149913315465902 0.00145787337514523)
(0.9932160439212521 -0.00380535560331691 0.00263791104595051)
(0.9940538927469038 -0.0016812359671805 0.00191832415700699)
(0.9949655062302196 -0.002465317321533528 0.00167956256004288)
(0.9971486195541482 -0.0004765029674602581 0.000527993573028122)
(0.9969222258971455 -7.234332631886492e-05 8.022776046703177e-05)
(0.9970483838471664 -6.996855629092654e-05 0.0005429585209156518)
(0.996203579375366 -0.0006923015459446063 0.0007737828223964531)
(0.9960077955664605 -0.0007203558318909114 0.000115108727880681)
(0.995838532021289 -0.0001063819936213385 0.0001190716386880801)
(0.9960442063466642 -0.0001021909524531545 0.0008000226095858791)
(0.9955693493460878 -0.0008241891469134064 0.0001321936585163999)
(0.994218144084124 -0.001203278779733004 0.001368258556368342)
(0.993816999961524 -0.001268253482312264 0.000206328438800617)
(0.9953691483400717 -0.0001219688790711194 0.0001370484904907047)
(0.9956137916903248 -0.000116837642704703 0.0009181043242043536)
(0.993474875064474 -0.0001890274588690247 0.0002155920589264333)
(0.9939019575751338 -0.0001792564724541752 0.001428829010324976)
(0.9906977522971524 -0.002258442075268251 0.002640388974820742)
(0.9890214968706418 -0.0003649104722410313 0.0004303412092368374)
(0.9900067888154253 -0.0003407121849868887 0.002797039753483793)
(0.9935247306068316 -0.001397291023555352 0.001597979051029977)
(0.9930368591946035 -0.001478823821358295 0.0002420383576045365)
(0.9926232532209228 -0.0002209680669440311 0.0002536462487432625)
(0.9931443220282106 -0.0002087368125389706 0.001673900942130144)
(0.9971290132920313 -6.84465399106232e-05 0.0006827347594928664)
(0.9963276066752484 -0.0006744429048313772 0.0009687149811041763)
(0.9961744371162391 -9.9524058189493e-05 0.00100123645113876)
(0.9944679167784941 -0.001162462727276634 0.001697925807396998)
(0.9957681294697891 -0.0001135818548992632 0.001146822122650691)
(0.9941679327472548 -0.0001731006737969018 0.001772215186099402)
(0.9906145342947612 -0.0003247998603175927 0.003421807397462917)
(0.9938267539280129 -0.001346241208719387 0.001977304197644562)
(0.9934673576474664 -0.0002010217403734486 0.002070179924896469)
(0.9608011523531332 -0.06115394855870337 0.002839819266738629)
(0.9659586867919303 -0.05604591283919945 0.0182028993850955)
(0.9412270534541152 -0.05859589274679833 0.0282555299836054)
(0.9307621316160294 -0.06487952300603644 0.00211746502949267)
(0.9688806471028487 -0.05746912715920739 0.002439283545993052)
(0.9729071663101589 -0.05289302461231159 0.01571129655225106)
(0.9881276290020679 -0.04186374083195396 0.009891470972651714)
(0.9863201554460346 -0.04486540663365482 0.001515328671983352)
(0.9927406849117257 -0.004898900820385196 0.002342580616644565)
(0.9901523896059871 -0.00797460478624475 0.003906598963667876)
(0.9879733032210791 -0.009148316956417879 0.0003322424860782157)
(0.9872436182461414 -0.01001655134466146 0.0003582926356234353)
(0.9850060836458641 -0.01666504589675122 0.009594716846026157)
(0.9803998166691471 -0.01999163758227891 0.0007760801532130797)
(0.9918099281665175 -0.03063815933168134 0.0153515649660763)
(0.9697181317686395 -0.05054090132772204 0.002129773558385532)
(0.9843940188339037 -0.01832026779138213 0.01063984060157676)
(0.9791514439110259 -0.0222486583920623 0.0008721435117502948)
(0.9910025896225675 -0.007477161533921199 0.004695947493667527)
(0.9860828938897013 -0.01586301004832723 0.01031925726749741)
(0.9931645152492793 -0.02843962901057221 0.01610518555985176)
(0.9856013927389752 -0.01738440993879751 0.01140474590835352)
(0.9796034725219165 -0.04188046361212148 0.0286280933710401)
(0.9690191023020868 -0.0529632907833219 0.02204520519229701)
(0.9449474241158612 -0.05672178274065838 0.03116239437907514)
(0.9647849105385965 -0.04422926956167194 0.04049379969842483)
(0.9932241059715231 -0.03306477642000254 0.01665034146433211)
(0.9837476504225412 -0.04004094140247822 0.0251505050610927)
(0.9753071806470457 -0.05012570059075821 0.0191010948737332)
(0.9892205663883384 -0.04002343570536984 0.01214946729428006)
(0.9830758351392368 -0.03804586960916578 0.02928480453210856)
(0.9919090141985731 -0.02752358028831469 0.02800236528467367)
(0.9707557091741938 -0.03983664943599923 0.04086878760718481)
(0.98534516878897 -0.02810310776402254 0.03747658798521945)
(0.9888530665971537 -0.003589614239629052 0.0004715998595843862)
(0.989952480215748 -0.003312334980152404 0.003033014782539291)
(0.9919841346643038 -0.004653839421590356 0.002531766979207381)
(0.9882448278479359 -0.007545364333963694 0.004246684808535322)
(0.9871269532711275 -0.00905041039590047 0.0003513389381285557)
(0.9845182441686477 -0.005667200698867623 0.006144801988562287)
(0.9816593631342392 -0.006451634821531039 0.0004701672937421057)
(0.9863144849570653 -0.009914441448369416 0.0003838390576729645)
(0.9834009397256996 -0.01673294744127993 0.01033725168814387)
(0.9782268432168431 -0.02015819708657667 0.000840772449731432)
(0.9833853174806736 -0.00625332871874657 0.006840660914727827)
(0.9801095615910093 -0.00715900608459667 0.0005269682077996009)
(0.9719509980564587 -0.01300292315831492 0.01548855273499933)
(0.9625190199639976 -0.01595105366215287 0.001296151912009645)
(0.9791329403471353 -0.0377259200757848 0.02547950160104189)
(0.9628384204675428 -0.05325852087609495 0.002446233673721803)
(0.9826050337385838 -0.01845305390926856 0.01151012463862837)
(0.9766731479922834 -0.02251689052765146 0.0009494268081057409)
(0.9381648958839555 -0.05287179592537351 0.02703514599234189)
(0.9696721636399704 -0.01453871233297591 0.017617531567362)
(0.958493528569763 -0.01808892434970089 0.001500474936928442)
(0.9924851826704478 -0.004434313746914321 0.003095872311366319)
(0.9897352184640466 -0.00725930119618081 0.00521733175693787)
(0.9852687596266687 -0.00547190182560804 0.006717965762707952)
(0.9846046633517759 -0.01591006381985073 0.0111021888628711)
(0.9842040971184806 -0.006026513708598124 0.007455005423654503)
(0.9740971164242566 -0.01230313589067365 0.01651216873182839)
(0.982262184465872 -0.03453200456834524 0.02626719884792827)
(0.9839636611188258 -0.01748887400894587 0.01231792919376582)
(0.9721694819860369 -0.01370682972029214 0.01869880821163797)
(0.9763279765410474 -0.02355780273929621 0.04996268097910118)
(0.9663919306076278 -0.03926809853934913 0.044928676987678)
(0.9830164073459662 -0.02755696555221188 0.04073661406617807)
(0.9394830833141407 -0.05603653291715669 0.03281064856416726)
(0.9594965217261201 -0.04368884635007053 0.04472238666412921)
(0.9125806261515399 -0.04646176875333381 0.04358801289301495)
(0.9340185533867676 -0.01944560605132538 0.06561161627855781)
(0.9093185932474032 -0.04426892702222228 0.04493681506391635)
(0.8924538098682629 -0.02560683440999809 0.05202361516512367)
(0.9894187018910918 -0.002682499994811273 0.003165805362980675)
(0.9873137702552587 -0.0004416562603117179 0.0005270715077078807)
(0.9885602304680288 -0.0004065610139109183 0.003370336039645503)
(0.9839822319957383 -0.005127487189314931 0.006320671004798512)
(0.9810211302455412 -0.005840907409250422 0.0004837316075842022)
(0.9785864699177232 -0.0004244662501953189 0.0005333999820995127)
(0.9820025409563954 -0.0003735688502379674 0.00696974001379637)
(0.9793834291628024 -0.006487344410559552 0.0005428798716223433)
(0.9705605903408191 -0.01184741739918604 0.01610359060986597)
(0.9606038506170042 -0.01454808635676237 0.001350813401315499)
(0.9766195469874261 -0.0004737132238901293 0.0006020248681924545)
(0.9805531510009298 -0.0004131618093126737 0.007787539108815181)
(0.9533389112504933 -0.001081358357950073 0.001556203967810859)
(0.9652644148301823 -0.0008806661570681535 0.01843745678312467)
(0.9353387357352139 -0.01632622718952291 0.0612580724164401)
(0.8873898067195952 -0.001470086179752879 0.04554734919353926)
(0.894326055168305 -0.04701294765079504 0.002828972356930726)
(0.9680930933536533 -0.01325737882681665 0.01835052050623055)
(0.9562672448854063 -0.0165090206838956 0.001566755789536572)
(0.9478588542298192 -0.001225758329996955 0.001814141896786013)
(0.9620866130769737 -0.0009870978368681431 0.02112991725705902)
(0.9893258200800363 -0.000385750216148905 0.00410284458075085)
(0.9847334682123239 -0.004942943983790991 0.006897542673773279)
(0.9828482056079362 -0.0003601326739337284 0.007596884101108333)
(0.9728228225615964 -0.01120642136850004 0.01715690115513676)
(0.9815212676300754 -0.0003975599099805288 0.008469309602174237)
(0.9679665175282778 -0.0008324216000232894 0.01960382771365989)
(0.9405276656292495 -0.01556575888871618 0.06133130362019587)
(0.9707310441715125 -0.01249526224044526 0.01946330859852623)
(0.9652551156644592 -0.0009297761739823408 0.02236353550925295)
(0.933016586017189 -0.01724575605706224 0.0664414165555012)
(0.92954791305082 -0.001167069761394403 0.06933144752328675)
(0.8856263103382123 -0.001522821042073606 0.05497586442909291)
(0.8909069846117678 -0.02266599075705232 0.05268696294699196)
(0.8861406458332078 -0.05079706721257497 0.003151514020325485)
(0.9047103607686335 -0.04560929862989758 0.0411830833480354)
(0.8870413273750402 -0.02632872480685541 0.04769648373555977)
(0.8652705450109442 -0.0290896962972246 0.00365483015416421)
(0.9363815324530743 -0.05763250445999726 0.0297604011356119)
(0.9245362504538487 -0.06408762190040194 0.002239767678367577)
(0.8902382521195886 -0.05338278837603126 0.003054562861314994)
(0.908138436663421 -0.04788104503194447 0.03994038992809639)
(0.8799210960568163 -0.001563879937992683 0.05039963589939121)
(0.8569965310425319 -0.001719495182123731 0.00386024356063823)
(0.8854262244223163 -0.02329941466352663 0.04830452962479573)
(0.8633868616424396 -0.02571814553549145 0.003701306037972881)
(0.9493781932646596 -0.03125803773668439 0.05697620803345418)
(0.9988203441377715 -0.0004134644206095211 5.058508479633201e-05)
(0.998839518372717 -0.0004067581087714727 0.0001487191042697114)
(0.9989951131926232 -0.0003511913809180325 4.203829349574077e-05)
(0.9990102388395804 -0.0003484745352561712 0.0001224675192380386)
(0.9987195661687038 -0.0002489144552990976 0.0001634904520905161)
(0.9987565378907516 -0.0003356552547076715 5.441229423005022e-05)
(0.9987914717495248 -0.0003311746044149471 0.0001538082500078603)
(0.9988902128792233 -0.0002079747687837499 4.540104153422106e-05)
(0.9989049715545869 -0.0002053090223347886 0.0001322122504166854)
(0.9989189183444971 -0.0002798813906662518 4.374992626099857e-05)
(0.9989370281844002 -0.0002763092407391972 0.0001271995566094599)
(0.9988814959442457 -0.0004004534804149621 0.000242173448752765)
(0.9990494885275618 -0.0003411935623755634 0.0002028346352565585)
(0.9988110735183023 -0.0003199640793648883 0.0002486244893380673)
(0.9989508273457665 -0.0002000338148041423 0.0002175756192566659)
(0.998974126457905 -0.0002695298447282957 0.0002104258125295)
(0.9986413605550679 -5.193565947095386e-05 5.632262949362084e-05)
(0.998664659440169 -5.147103648508964e-05 0.0001664217146613891)
(0.9986832145601391 -0.0001516971380623659 0.000164925125671218)
(0.9988485490780713 -0.0001262256811642365 4.625940481826188e-05)
(0.9988389724320104 -4.396453597677556e-05 4.648994218258504e-05)
(0.9988555239578815 -4.371845251141951e-05 0.0001357762291795569)
(0.998863846125335 -0.0001250689735090469 0.0001346750063919875)
(0.9987264676086531 -0.0001501975200626694 0.0002698722524331916)
(0.9989013825638816 -4.279541376529298e-05 0.0002251978652292767)
(0.9989092047135327 -0.0001224397696538514 0.0002225500441025585)
(0.9983534725219259 -0.0004412982174599413 0.0001117118031831313)
(0.9982759428185577 -0.0005508292072525841 0.0001198125991108819)
(0.9982119538970201 -0.0004918220577746457 4.143926743589147e-05)
(0.9983954600496602 -0.0004995225892953654 3.617841423306938e-05)
(0.9984025873760741 -0.0004967140883557075 0.0001068192873015647)
(0.9982209889605693 -0.0004893893576941939 0.0001236112354817547)
(0.9983467405998917 -0.0004438492227095978 3.759026520856869e-05)
(0.9984902482747098 -0.0004232554165756474 0.0003745948001066917)
(0.9982997355580627 -0.0004699231173396977 0.0003549306206220983)
(0.9984063279224996 -0.0005256739455806346 0.0004212091201640578)
(0.9984983693588906 -0.000470885758316696 0.0003167858603839363)
(0.9983897315876452 -0.0004179282471495835 0.0003124892942278821)
(0.9985371604406913 -0.0004799229636167092 0.0003840159893286241)
(0.9983566126273991 -0.0004639507764935293 0.0004267828861334209)
(0.9982295386261257 -0.0001820223910015726 0.0001194452210617958)
(0.9981007785471231 -0.0002791150725319629 0.0001312677708343607)
(0.9980655963335018 -0.0002023926193833914 4.439884724972354e-05)
(0.9982424184826881 -0.0002531428289258299 3.95953241750875e-05)
(0.9982511709839106 -0.0002522991238800268 0.0001184310825651322)
(0.9980757463198614 -0.0002015708196745776 0.0001326744311337733)
(0.9982204743150638 -0.0001826292539568484 3.993017041018529e-05)
(0.9983420545459948 -0.0001727277574757127 0.0004137832082816316)
(0.998230944919975 -0.000260455822901701 0.0004519839657324795)
(0.9981629760065013 -0.0001937521644372022 0.0003831265304352331)
(0.9983231382945967 -0.0002420948370034679 0.0003431456834787722)
(0.9983537211027398 -0.0002342444676352412 0.0004077588691518976)
(0.9983055579075165 -0.0001761882241560266 0.0003468668853059237)
(0.9982087258696878 -0.0001891849128164519 0.000457768433440545)
(0.9977243068674415 -0.0006763823807182178 0.0001719447327729764)
(0.9976115192237455 -0.0008483355257726621 0.0001872174915667117)
(0.9975037031560249 -0.0007609765157952388 6.463303404958587e-05)
(0.9977908962729898 -0.000762633881198179 5.59731208269766e-05)
(0.9978043392931788 -0.0007590456542275427 0.0001671290710948016)
(0.9975198084029244 -0.0007571297663680416 0.000192910652024841)
(0.9977103112663223 -0.0006796430006049778 5.759229369212909e-05)
(0.9981448952071131 -0.0008447313845634598 0.0005376473622438755)
(0.9979377682742386 -0.0009594114692840056 0.0005006593149275523)
(0.99790480005182 -0.0008689943604384511 0.0006196668216117246)
(0.9980025273019378 -0.0008001375420370845 0.0004660498294346687)
(0.9980898045960952 -0.0008640069488706838 0.0004500982883136065)
(0.9980607706900568 -0.0007822011658627701 0.0005567109612396791)
(0.9980007804277484 -0.0009368037139587473 0.0005973216029867956)
(0.997909955530549 -0.0006334349662552238 0.0005902227800162465)
(0.997659244907538 -0.0007238018860184128 0.0005530231230188672)
(0.9978149606400007 -0.000791962013166923 0.0006404220093570593)
(0.9979208259580523 -0.0007280191963216555 0.0004808158533600222)
(0.9978458363619179 -0.0006482458146346092 0.0004942637692395861)
(0.9979821043267912 -0.0007115824831687697 0.0005742928449836279)
(0.9977325740522568 -0.0007062054928799695 0.0006593248551482114)
(0.9975029616798997 -0.0002799783206608747 0.0001854062307633667)
(0.9973092300170628 -0.0004347049155108307 0.0002060053938155336)
(0.997246650188604 -0.0003162428945627592 6.996243478096094e-05)
(0.9975262117960767 -0.0003890552007386949 6.132436753275117e-05)
(0.9975414668698452 -0.0003871246486549471 0.0001830574030589164)
(0.9972646919338556 -0.0003145843127769958 0.0002087781892603981)
(0.9974874304306709 -0.0002813807178603797 6.211215602065082e-05)
(0.9977088769559206 -0.0002613087858872589 0.0006345066284855924)
(0.9975430716279241 -0.00040453887666091 0.0007025360682396605)
(0.9974208335457074 -0.000300195954869007 0.0005974858495203911)
(0.9976739282757767 -0.0003703229608120675 0.0005253401519600613)
(0.9977439064558781 -0.0003614753120270642 0.0006267412410525091)
(0.9976377166058147 -0.0002677571897711895 0.0005319562253124112)
(0.9975029614905284 -0.0002926196199151221 0.0007116757607763867)
(0.9942171082057446 -0.003974867242841013 0.0007182371637836889)
(0.9929306637832014 -0.004449162975061111 0.0009070335710733456)
(0.9935306922700284 -0.004653143687753001 0.0002819460027934678)
(0.9935498962440737 -0.003862082209404491 0.0002608565045043875)
(0.9936371812671387 -0.003822254055215035 0.0007742963354261255)
(0.9936244190962472 -0.00460258184001291 0.0008364910927461624)