/*--------------------------------*- C++ -*----------------------------------*\
  =========                 |
  \\      /  F ield         | OpenFOAM: The Open Source CFD Toolbox
   \\    /   O peration     | Website:  https://openfoam.org
    \\  /    A nd           | Version:  7
     \\/     M anipulation  |
\*---------------------------------------------------------------------------*/
FoamFile
{
    version     2.0;
    format      ascii;
    class       volVectorField;
    location    "0";
    object      grad(Phi);
}
// * * * * * * * * * * * * * * * * * * * * * * * * * * * * * * * * * * * * * //

dimensions      [0 1 -1 0 0 0 0];

internalField   nonuniform List<vector> 
12689
(
(-0.9999648342308978 2.227191936244658e-05 -0.0001565754075438948)
(-0.9999629421007509 2.525455445998219e-05 -0.0001793327274596822)
(-0.9999636583996391 2.879830096511232e-05 -0.0002064623698701513)
(-0.9999681829728572 3.29175885906463e-05 -0.0002381259608119947)
(-0.9999781098194037 3.758712403272116e-05 -0.0002742017778586826)
(-0.9999669939892661 6.691370627501948e-06 -0.0001395961868891407)
(-0.9999630259934982 7.528082537515652e-06 -0.0001586908497496707)
(-0.999960767743763 8.546358011712665e-06 -0.0001819907342531062)
(-0.9999610993014708 9.758995949810669e-06 -0.0002098232014089203)
(-0.9999652395270293 1.117259571969952e-05 -0.000242386511785167)
(-0.9999748190577287 1.278050912348973e-05 -0.0002795977850064557)
(-0.3333321222662189 1.282694002456243e-05 -9.063646400348459e-05)
(-0.9999946167336965 1.311408731761684e-05 -9.300792920529062e-05)
(-0.999991259923792 1.369356927200393e-05 -9.779814625350891e-05)
(-0.999988287747283 1.457537458931641e-05 -0.0001050986007576036)
(-0.9999859297270625 1.577341359885285e-05 -0.0001150379260703717)
(-0.9999844966527991 1.730391692634541e-05 -0.0001277690230789829)
(-0.9999844109902766 1.918273790479954e-05 -0.000143447283738741)
(-0.999986240778843 2.142100561887721e-05 -0.0001621953757621391)
(-0.9999907345860906 2.401836966306245e-05 -0.0001840483557363274)
(-0.9999988514588766 2.695287868448277e-05 -0.0002088712890846906)
(-1.000011773788794 3.016642519713646e-05 -0.0002362409036135659)
(-0.3333320589654254 4.319097416636515e-06 -9.143508372684805e-05)
(-0.9999943301060349 4.416495325352035e-06 -9.384799350497715e-05)
(-0.9999907764195474 4.613113390770667e-06 -9.872339968618463e-05)
(-0.9999875991424646 4.912471534514423e-06 -0.000106157467998113)
(-0.9999850255674205 5.319502245872571e-06 -0.0001162860337038003)
(-0.9999833656400492 5.840026991913717e-06 -0.0001292718801679654)
(-0.9999830432731799 6.479865434655055e-06 -0.0001452830489297281)
(-0.9999846315971936 7.243385050733855e-06 -0.0001644574748098038)
(-0.9999888898680439 8.131219701659803e-06 -0.0001868474215232034)
(-0.9999967961170468 9.136800970511596e-06 -0.0002123354018904007)
(-1.00000956356177 1.024127462697579e-05 -0.0002405122995323697)
(-0.3333328833178101 1.162133324956909e-05 -8.47272196859538e-05)
(-0.9999980596050085 1.184910525117057e-05 -8.676604158941068e-05)
(-0.9999970566003451 1.23069317253382e-05 -9.086938310389086e-05)
(-0.999996518989708 1.299894733528199e-05 -9.708479371876529e-05)
(-0.9999966929583262 1.393020468754017e-05 -0.0001054733199916362)
(-0.999997886726501 1.510508474539674e-05 -0.0001160952829953302)
(-1.000000490096177 1.652481953666588e-05 -0.0001289880895194209)
(-1.000004993211034 1.818381403194934e-05 -0.0001441332463672336)
(-1.000012001309866 2.0064396157529e-05 -0.0001614091923173566)
(-1.000022239540301 2.212962831512515e-05 -0.0001805265730878305)
(-1.000036538050358 2.43139676078164e-05 -0.0002009439047925119)
(-0.3333328331266366 3.912455680913617e-06 -8.545531421823352e-05)
(-0.9999978329483058 3.98969250252465e-06 -8.75288334540257e-05)
(-0.9999966763239083 4.144985698946078e-06 -9.170313729638169e-05)
(-0.9999959818336072 4.379831814833745e-06 -9.802891797138215e-05)
(-0.9999959954750256 4.696093833116946e-06 -0.000106571934471209)
(-0.9999970266121788 5.095470579491683e-06 -0.0001173987269373519)
(-0.9999994682165201 5.578664608553716e-06 -0.0001305542268438915)
(-1.000003816558235 6.14413819240923e-06 -0.000146028299298547)
(-1.000010687154519 6.786322043803867e-06 -0.0001637076255157903)
(-1.000020821007825 7.493136237985917e-06 -0.0001833092431865889)
(-1.00003507119567 8.24272272864135e-06 -0.0002042932566364777)
(-0.3333335300242018 1.053402652394761e-05 -7.742342593181874e-05)
(-1.000000978260096 1.071263940597934e-05 -7.913902515012164e-05)
(-1.000001947202783 1.107023039527739e-05 -8.258004238531796e-05)
(-1.000003413253345 1.160713363782601e-05 -8.776221615404172e-05)
(-1.000005619162385 1.232281593689135e-05 -9.469897063300532e-05)
(-1.000008851235524 1.321451388245867e-05 -0.0001033879904355218)
(-1.000013450309484 1.427522211071853e-05 -0.0001137913813053981)
(-1.000019819778169 1.549088989595851e-05 -0.0001258079707743465)
(-1.00002842767448 1.683669718105925e-05 -0.0001392364021126406)
(-1.000039798125368 1.827236501456402e-05 -0.0001537284128829082)
(-1.000054485507319 1.973666077408139e-05 -0.0001687335661097026)
(-0.3333334906810881 3.545799013010717e-06 -7.807301238173502e-05)
(-1.00000080106565 3.606349582040683e-06 -7.981705774276756e-05)
(-1.000001651507083 3.727607267642541e-06 -8.331597897735247e-05)
(-1.00000299896811 3.909752171930235e-06 -8.858750743671167e-05)
(-1.000005087155278 4.152707000151594e-06 -9.564796332598551e-05)
(-1.000008204442864 4.455677427017546e-06 -0.0001044986693048573)
(-1.000012695330269 4.816470970435287e-06 -0.0001151058075670251)
(-1.000018969045818 5.230542194239811e-06 -0.0001273721849094852)
(-1.000027502274214 5.689715996809691e-06 -0.0001410994360725714)
(-1.000038831234993 6.180565793173532e-06 -0.0001559399000142599)
(-1.000053526246959 6.682491466847074e-06 -0.000171339264065038)
(-0.3333340678982219 9.575104278287777e-06 -6.898693928476082e-05)
(-1.000003400386337 9.713848287108155e-06 -7.039915669045808e-05)
(-1.000005987762457 9.990511361097063e-06 -7.322273151066507e-05)
(-1.000009070736822 1.040311636083611e-05 -7.745241881580273e-05)
(-1.000012876795975 1.094785779433591e-05 -8.307129562772502e-05)
(-1.000017661008983 1.161803693113745e-05 -9.003925097000674e-05)
(-1.000023710790099 1.24025594621786e-05 -9.82766967636244e-05)
(-1.000031346982584 1.328395596736154e-05 -0.0001076430037205008)
(-1.000040918910621 1.423592568545926e-05 -0.000117909552674556)
(-1.000052790174441 1.522049643790749e-05 -0.0001287282018806555)
(-1.000067311204386 1.618506369337723e-05 -0.0001395976675136832)
(-0.3333340373484354 3.222503664309408e-06 -6.95529623912753e-05)
(-1.000003263163711 3.269526289364947e-06 -7.098801861188947e-05)
(-1.000005760003948 3.363315286446269e-06 -7.385788264658106e-05)
(-1.000008754245968 3.5032476666593e-06 -7.815848725813651e-05)
(-1.000012474892675 3.68810496672507e-06 -8.387455043237315e-05)
(-1.000017179379428 3.915712241291204e-06 -9.096788054765494e-05)
(-1.000023158643396 4.182426925816935e-06 -9.936078216144324e-05)
(-1.000030738530615 4.482461992694172e-06 -0.0001089140151703365)
(-1.000040275145163 4.80704155182171e-06 -0.0001193991352831721)
(-1.000052140829673 5.143416874631263e-06 -0.0001304659553733904)
(-1.000066696646738 5.473829750494255e-06 -0.0001416075889218415)
(-0.333334505126696 8.750585381770514e-06 -5.965263577164227e-05)
(-1.000005365330617 8.857683027394118e-06 -6.078681894960574e-05)
(-1.000009252367127 9.070370104233684e-06 -6.304803752934217e-05)
(-1.000013613551895 9.385380036902243e-06 -6.641905355603083e-05)
(-1.000018655524259 9.797180453574492e-06 -7.086655079971317e-05)
(-1.000024599686701 1.029719819565757e-05 -7.633193600820809e-05)
(-1.000031682767689 1.087277120986469e-05 -8.271879656440717e-05)
(-1.000040153807505 1.150584157864145e-05 -8.987707590821329e-05)
(-1.000050265915431 1.217144610603359e-05 -9.758447525463739e-05)
(-1.000062260815738 1.283613538879338e-05 -0.0001055263984098027)
(-1.000076344117165 1.345656732163133e-05 -0.0001132770261245144)
(-0.3333344815532394 2.944574775555234e-06 -6.013228205938653e-05)
(-1.000005259733057 2.980863260841655e-06 -6.128438622122027e-05)
(-1.000009078063895 3.052945891987687e-06 -6.358178606142691e-05)
(-1.000013373374031 3.159749148824694e-06 -6.700787564376247e-05)
(-1.000018354026899 3.29944799277043e-06 -7.153016265538709e-05)
(-1.000024243754297 3.469202160416204e-06 -7.709089999926475e-05)
(-1.00003128239827 3.664798360165716e-06 -8.359428297531459e-05)
(-1.000039723054409 3.880202217651536e-06 -9.089024828308428e-05)
(-1.000049823926567 4.107038016343666e-06 -9.875535859508291e-05)
(-1.00006183284769 4.3340395559602e-06 -0.0001068720775949891)
(-1.000075962310066 4.546555211631226e-06 -0.0001148090413014864)
(-0.3333348510247027 8.063489152404861e-06 -4.962494961066855e-05)
(-1.000006917052443 8.146090419649718e-06 -5.050796005361183e-05)
(-1.000011821148298 8.309433783783744e-06 -5.226403451922394e-05)
(-1.000017168482709 8.549621352762857e-06 -5.487097960367192e-05)
(-1.000023143709943 8.860358770098277e-06 -5.828973771944758e-05)
(-1.000029936549239 9.232425309044487e-06 -6.245745692919407e-05)
(-1.000037739684996 9.652988600586939e-06 -6.727834945704008e-05)
(-1.000046743578371 1.0104801079299e-05 -7.26126615343357e-05)
(-1.000057127137498 1.056535036552774e-05 -7.826447322903275e-05)
(-1.000069043173556 1.100608708717631e-05 -8.396966133378055e-05)
(-1.000082597796154 1.139192293728353e-05 -8.93862054047963e-05)
(-0.33333483284893 2.713007321649236e-06 -5.001699643675324e-05)
(-1.000006835864284 2.740989665666811e-06 -5.09136709362483e-05)
(-1.000011687903708 2.796336703388998e-06 -5.2697239401581e-05)
(-1.000016986493155 2.877751899341475e-06 -5.534579957276211e-05)
(-1.000022918025043 2.983138036081856e-06 -5.882062467866848e-05)
(-1.000029674361188 3.109416398890947e-06 -6.305909496403419e-05)
(-1.000037450825547 3.252292034315939e-06 -6.796535458568783e-05)
(-1.000046441073221 3.405977558110459e-06 -7.339900656241608e-05)
(-1.000056827754093 3.562899218733469e-06 -7.916255973387454e-05)
(-1.000068767858191 3.713426902042944e-06 -8.498896920591135e-05)
(-1.000082371845927 3.845693721762106e-06 -9.053148347285662e-05)
(-0.3333351148243786 7.514808101953284e-06 -3.907799821891807e-05)
(-1.000008098668555 7.579080765378562e-06 -3.973515965309201e-05)
(-1.000013771208804 7.70561731208936e-06 -4.103936257199485e-05)
(-1.000019854458781 7.89027801591129e-06 -4.29686816320014e-05)
(-1.000026512947203 8.126553746515901e-06 -4.548604275725626e-05)
(-1.000033909320286 8.405225071164437e-06 -4.853430392882699e-05)
(-1.000042200658173 8.713944804019154e-06 -5.202995352610639e-05)
(-1.000051532292841 9.036787616331709e-06 -5.585581403487353e-05)
(-1.000062028522367 9.353835753136078e-06 -5.985344286642409e-05)
(-1.000073779752634 9.640902555601763e-06 -6.381634290048189e-05)
(-1.00008682592939 9.869532691279953e-06 -6.748561407740296e-05)
(-0.3333351006856303 2.528115325826076e-06 -3.938223851568863e-05)
(-1.000008035698985 2.549884816114781e-06 -4.004938950222155e-05)
(-1.00001366848284 2.592752496118814e-06 -4.137363655814128e-05)
(-1.000019715451639 2.65533395749926e-06 -4.333315266632007e-05)
(-1.000026342797126 2.73545030046103e-06 -4.58909297626504e-05)
(-1.000033715081701 2.830011333652601e-06 -4.898975632793255e-05)
(-1.000041991592426 2.934872144285428e-06 -5.254577120267807e-05)
(-1.000051320159741 3.044677459211786e-06 -5.644097934988148e-05)
(-1.000061827816448 3.152717269472294e-06 -6.051542463789227e-05)
(-1.00007360780442 3.250827735548257e-06 -6.456014626806922e-05)
(-1.000086702767572 3.329385280974391e-06 -6.831258022326358e-05)
(-0.3333353047790312 7.104339534999836e-06 -2.815836239543909e-05)
(-1.000008948465527 7.155620798799183e-06 -2.861125610656717e-05)
(-1.000015170153206 7.256132806405057e-06 -2.950861439704656e-05)
(-1.000021773972901 7.401694701933583e-06 -3.083244517170402e-05)
(-1.000028908104465 7.58584329847608e-06 -3.255296500864946e-05)
(-1.000036714171107 7.799626121031625e-06 -3.46253736584881e-05)
(-1.000045322677606 8.031367420685859e-06 -3.698582245509555e-05)
(-1.000054846478045 8.266449936874202e-06 -3.954691293134111e-05)
(-1.000065371970966 8.487172400770152e-06 -4.219326786018877e-05)
(-1.000076947922311 8.672762303190711e-06 -4.477797982703719e-05)
(-1.000089572160935 8.799641147715575e-06 -4.71210338714312e-05)
(-0.3333352935007992 2.38981328481992e-06 -2.83751270414541e-05)
(-1.000008898383685 2.407180209692375e-06 -2.883480877388753e-05)
(-1.000015088944127 2.441226758520531e-06 -2.974575778574284e-05)
(-1.000021665118259 2.490550839750134e-06 -3.108998905254628e-05)
(-1.000028776650264 2.552983561306774e-06 -3.283767328583335e-05)
(-1.000036566875537 2.625517954157982e-06 -3.49438416514305e-05)
(-1.000045168163677 2.704228113915494e-06 -3.734425915022479e-05)
(-1.000054695357137 2.784192943203803e-06 -3.995080419329372e-05)
(-1.000065236891258 2.859445008978725e-06 -4.26469019043565e-05)
(-1.000076843483619 2.922971347356441e-06 -4.528382841249326e-05)
(-1.000089514627273 2.966799476174722e-06 -4.767900481416809e-05)
(-0.3333354275367055 6.831353722648519e-06 -1.698971641747841e-05)
(-1.000009497143845 6.874337874325404e-06 -1.725467905217951e-05)
(-1.00001607172605 6.958259136743298e-06 -1.77790898573509e-05)
(-1.0000230075362 7.078971055836312e-06 -1.85512714512358e-05)
(-1.000030441337421 7.230131301182602e-06 -1.955211739473693e-05)
(-1.000038500494071 7.403078955329345e-06 -2.075328118496208e-05)
(-1.000047297966706 7.586713411346715e-06 -2.211495341207348e-05)
(-1.000056925718439 7.767414535154345e-06 -2.358344877508543e-05)
(-1.00006744641308 7.929055639758298e-06 -2.50889409339769e-05)
(-1.000078883510288 8.053172356662446e-06 -2.654382490690492e-05)
(-1.000091210189186 8.119357767318735e-06 -2.784232963225846e-05)
(-0.3333354180849257 2.297841898523875e-06 -1.711950335154222e-05)
(-1.000009455280826 2.312397649772102e-06 -1.738839857554164e-05)
(-1.000016004205272 2.340821891194305e-06 -1.792067138785029e-05)
(-1.000022917792693 2.381722034637313e-06 -1.870462499314689e-05)
(-1.000030334287318 2.432966901448656e-06 -1.972109097836784e-05)
(-1.000038382617061 2.491644227011224e-06 -2.094157831916874e-05)
(-1.000047177375059 2.554018233142506e-06 -2.232599731111994e-05)
(-1.000056812182593 2.615500745898389e-06 -2.382018135326958e-05)
(-1.000067351305818 2.670653454281546e-06 -2.535354919608312e-05)
(-1.000078819625291 2.713242497684708e-06 -2.683739475891884e-05)
(-1.000091191387354 2.736369674439568e-06 -2.816444035315922e-05)
(-0.3333354877294177 6.69509132128063e-06 -3.785778816340486e-06)
(-1.000009766030872 6.734036725165357e-06 -3.843895914824642e-06)
(-1.000016513052476 6.809891216400639e-06 -3.958855522389793e-06)
(-1.00002361032285 6.918543096372401e-06 -4.127968097122917e-06)
(-1.000031188757403 7.053735769838676e-06 -4.346856124642315e-06)
(-1.000039368536983 7.206985627087433e-06 -4.60906601651056e-06)
(-1.000048253922609 7.367514240395576e-06 -4.905596389977009e-06)
(-1.000057926679406 7.522232718424687e-06 -5.224393954569244e-06)
(-1.000068438074817 7.655824828790315e-06 -5.54989310465472e-06)
(-1.00007979964632 7.750983560966493e-06 -5.862704957519708e-06)
(-1.000091973244254 7.788858315922623e-06 -6.139589860264903e-06)
(-0.3333354791665536 2.251936183310499e-06 -3.814586704563493e-06)
(-1.000009728164868 2.265123722093677e-06 -3.873562068679925e-06)
(-1.000016452178632 2.290814654552075e-06 -3.990236202268145e-06)
(-1.000023529838549 2.327627156316898e-06 -4.161912737018768e-06)
(-1.00003109349478 2.373457643756057e-06 -4.384196753683262e-06)
(-1.000039264814239 2.425452067565288e-06 -4.650598000063907e-06)
(-1.000048149573963 2.479981673694861e-06 -4.95204781077132e-06)
(-1.000057831035875 2.532636130216488e-06 -5.27638120266948e-06)
(-1.000068361862286 2.578249825601409e-06 -5.607861417409959e-06)
(-1.000079754763746 2.610979820725828e-06 -5.926854331393911e-06)
(-1.000091972385813 2.624455159860966e-06 -6.209789618118344e-06)
(-1.000030952666828 3.354483952491603e-05 -0.0002652847534542095)
(-1.000028690529279 1.140634373278131e-05 -0.0002705098799029663)
(-1.000055851682865 2.651200673493682e-05 -0.0002217654737316845)
(-1.000054424070145 8.999414852302867e-06 -0.0002257559737138165)
(-1.000073087553732 2.114166583065375e-05 -0.0001834404236688817)
(-1.000072205045661 7.165675227883531e-06 -0.0001864748182861105)
(-1.000084834138087 1.705984565511755e-05 -0.0001498330665603489)
(-1.000084307070874 5.774603222263998e-06 -0.0001521283611315844)
(-1.000092408481873 4.726244777422498e-06 -0.0001220067526743369)
(-1.00000222266147 6.825575128962508e-05 -0.0003010683772031101)
(-0.9999955328181629 4.271064897104939e-05 -0.00031405792620624)
(-0.999991995592707 1.455161881999826e-05 -0.0003208589819844679)
(-1.000092704561578 1.397867820607254e-05 -0.0001202858663234916)
(-1.000097874053589 1.16812713204858e-05 -9.409003175777348e-05)
(-1.000097727114405 3.945598573333249e-06 -9.535906610829686e-05)
(-1.000101183673467 1.000745304197567e-05 -7.055021234423668e-05)
(-1.000101131785764 3.377453236060939e-06 -7.145662480877033e-05)
(-1.000103221149437 8.842050608957567e-06 -4.90110582499979e-05)
(-1.000103228118895 2.982205961151925e-06 -4.961766820252015e-05)
(-1.000104380407123 8.105953179793387e-06 -2.886211224923014e-05)
(-1.000104421258653 2.732704007694958e-06 -2.921040300509862e-05)
(-1.000104902786147 7.749764327021665e-06 -6.353866840669224e-06)
(-1.000104959077802 2.612015259127248e-06 -6.429565983317095e-06)
(-1.00006050614374 5.309479215808436e-05 -0.000396429060435864)
(-1.000018718065788 1.638947589678039e-05 -0.000364169135922073)
(-1.000057312234836 1.815240340127199e-05 -0.0004067967926678582)
(-1.000095271749307 6.347156369106331e-05 -0.0003063291522094443)
(-1.000057311119401 3.685055869203553e-05 -0.0002941139360759545)
(-1.000091872273744 3.979696487773608e-05 -0.0003204692200542428)
(-1.000055166446049 1.255003929155239e-05 -0.0003004078615714947)
(-1.000090107435815 1.356912768676217e-05 -0.00032787965662354)
(-1.000080509488504 2.85408266265108e-05 -0.0002413835419479614)
(-1.000110901152907 3.020231494164569e-05 -0.0002580497180309342)
(-1.000079244442092 9.700353076005035e-06 -0.0002460560063784996)
(-1.000109961356034 1.027596295849966e-05 -0.0002633915702518196)
(-1.00009557273593 2.235274727638125e-05 -0.0001965595036137546)
(-1.000121983810475 2.323604530323881e-05 -0.0002067929704397835)
(-1.000094854368255 7.584029208401393e-06 -0.0002000291091653091)
(-1.000121533877281 7.891242520285697e-06 -0.0002106679226291563)
(-1.000105121417241 1.774796747378863e-05 -0.0001584388567521671)
(-1.000128037061422 1.815960974004538e-05 -0.0001644760081836272)
(-1.000104743253974 6.012660920262698e-06 -0.0001610115024582895)
(-1.000127876208377 6.157158168616984e-06 -0.0001672938000541752)
(-1.000110995149087 1.433352223032169e-05 -0.0001258063314202228)
(-1.000130996524724 1.446095469080332e-05 -0.0001291722034951645)
(-1.000110827891633 4.849607466375142e-06 -0.0001277032060772951)
(-1.000131003474293 4.896063509490363e-06 -0.000131216149087345)
(-1.000114472780012 1.18251507949743e-05 -9.753693323576426e-05)
(-1.000132142860065 1.178318681259989e-05 -9.926379335971764e-05)
(-1.000114435246223 3.996465661652168e-06 -9.891665516410347e-05)
(-1.000132245133187 3.984507525973851e-06 -0.0001007305781864651)
(-1.00011643339498 1.001951216080737e-05 -7.262806588661239e-05)
(-1.000132317924303 9.878288799596983e-06 -7.340668023643419e-05)
(-1.000116474563412 3.383075741599025e-06 -7.360283255702716e-05)
(-1.000132472861303 3.336901445758717e-06 -7.443189874293749e-05)
(-1.000117470570633 8.774003227894281e-06 -5.019685985568706e-05)
(-1.000132067834097 8.576290258479241e-06 -5.047931236745755e-05)
(-1.000117558206668 2.960359115451949e-06 -5.08439085980893e-05)
(-1.000132250757526 2.89471546630295e-06 -5.115441333578084e-05)
(-1.000117971123444 7.992525092357723e-06 -2.946099751842246e-05)
(-1.000131736448771 7.764681307493304e-06 -2.952870861657632e-05)
(-1.000118084423796 2.695306033746626e-06 -2.983049089960144e-05)
(-1.000131933265556 2.619277369356684e-06 -2.991216753948961e-05)
(-1.000118167081109 7.615883098183583e-06 -6.474878968374769e-06)
(-1.000131524556569 7.375044218404377e-06 -6.479113020380359e-06)
(-1.000118291743019 2.567611161634589e-06 -6.554968253279778e-06)
(-1.000131727022456 2.487102973484186e-06 -6.562007830721818e-06)
(-1.000029034243457 7.641705653013056e-05 -0.0003396014716920128)
(-1.000066714910482 8.417109587578232e-05 -0.0003768341478583737)
(-1.000022290546691 4.800785797821307e-05 -0.0003556990201907935)
(-1.000117458450489 9.071739202299216e-05 -0.0004091364435711284)
(-1.000180783310197 9.496228805561943e-05 -0.0004299839206716168)
(-1.000257657696344 9.667938416365569e-05 -0.0004405121850648779)
(-1.000138011449507 6.687165439782571e-05 -0.0003253568859874682)
(-1.000189135577733 6.846345532684274e-05 -0.000335455338837683)
(-1.000247396856464 6.766365659874142e-05 -0.0003334361770258168)
(-1.000189365707271 5.023368550802421e-05 -0.0002615705748099343)
(-1.000234181495761 4.868105308676057e-05 -0.0002550422300220022)
(-1.0001125752777 5.741053362348009e-05 -0.0004325650368530953)
(-1.000178394050032 5.98097526356589e-05 -0.0004580553013601578)
(-1.00025850274405 5.758766689768241e-05 -0.0004721679494427262)
(-1.000110743490011 1.958701672718421e-05 -0.0004449565399568013)
(-1.000180606176923 1.998629896932514e-05 -0.0004715838121718047)
(-1.000223548343042 4.062965066612796e-05 -0.000364366074169524)
(-1.000135827859935 4.201487218443712e-05 -0.0003415547550501512)
(-1.000188769900476 4.295733650640572e-05 -0.0003534202125230787)
(-1.000249273937079 4.208095494182176e-05 -0.0003523503882778869)
(-1.000134851077878 1.431730922809936e-05 -0.000349970654974598)
(-1.000189069494976 1.454758802788843e-05 -0.0003621678215554306)
(-1.000250113410626 1.401849691064525e-05 -0.0003589735918081508)
(-1.000147578163472 3.126403909502695e-05 -0.0002697299196289439)
(-1.000189861938808 3.143385524318016e-05 -0.0002737824959091092)
(-1.000236292050731 3.04600101691959e-05 -0.0002675815988509821)
(-1.000147166815396 1.064175362463156e-05 -0.0002756402081732212)
(-1.000190169736197 1.068845114774548e-05 -0.0002799849035886116)
(-1.000237333107967 1.033447360542493e-05 -0.0002736196839322885)
(-1.000152540334604 2.364176616800693e-05 -0.0002126908933537937)
(-1.000186487801481 2.339632791367138e-05 -0.0002124962558785527)
(-1.000222560815083 2.234666324225034e-05 -0.0002045311333083091)
(-1.000152477695709 8.034995829711726e-06 -0.0002168937805086935)
(-1.000186923150544 7.954586550477668e-06 -0.0002168815507615474)
(-1.000223569464303 7.59988795656207e-06 -0.0002089060494425464)
(-1.000153636598553 1.819614211375265e-05 -0.0001669232394759995)
(-1.000181194061837 1.775033151710905e-05 -0.0001646170893565784)
(-1.000209661917633 1.672928455935673e-05 -0.0001565053518542774)
(-1.000153767372753 6.174163510025947e-06 -0.0001699259851622118)
(-1.000181684600632 6.026788051180836e-06 -0.0001677090688154384)
(-1.000210564734604 5.68368645037523e-06 -0.0001595613435523206)
(-1.000152690201052 1.429503185499068e-05 -0.0001296714453154625)
(-1.000175421180931 1.376886173828289e-05 -0.0001265379396814603)
(-1.000198338453482 1.282760607068652e-05 -0.0001191183294682039)
(-1.000152918823697 4.843055413116698e-06 -0.0001318160215021668)
(-1.000175913091691 4.667652308426438e-06 -0.0001287155158108058)
(-1.000199123987744 4.351106779491765e-06 -0.0001212420478756348)
(-1.000150838296334 1.151054100376417e-05 -9.878087146028241e-05)
(-1.000169983792256 1.096529428077876e-05 -9.558842399288947e-05)
(-1.000188889440267 1.011573177701376e-05 -8.928493236854055e-05)
(-1.000151111022386 3.894428396860876e-06 -0.0001002999056948649)
(-1.000170452174435 3.71187543471217e-06 -9.711187552903092e-05)
(-1.000189569829884 3.425958777183232e-06 -9.075318661849186e-05)
(-1.00014878596253 9.552480866485891e-06 -7.255743799227441e-05)
(-1.000165333919624 9.015533494450694e-06 -6.976060943869425e-05)
(-1.000181395146871 8.249382394622964e-06 -6.477365017623144e-05)
(-1.000149074780581 3.228273221394555e-06 -7.360812719366468e-05)
(-1.000165771888277 3.048108135126026e-06 -7.080386035754215e-05)
(-1.000181990565631 2.790195192157653e-06 -6.576962606342066e-05)
(-1.000146965180834 8.226060767941899e-06 -4.964947082007108e-05)
(-1.000161715299704 7.705990923658598e-06 -4.751199539582718e-05)
(-1.000175839371924 7.005855454058057e-06 -4.392608452721724e-05)
(-1.000147257062197 2.777508648376341e-06 -5.033594432505432e-05)
(-1.000162125561513 2.602819457400626e-06 -4.818851659112108e-05)
(-1.000176371851905 2.367129217426031e-06 -4.456743008672783e-05)
(-1.000145633867579 7.404475142426792e-06 -2.894956729354002e-05)
(-1.000159254131987 6.899774474843713e-06 -2.761853432565005e-05)
(-1.00017217442925 6.244592683971754e-06 -2.546281072629738e-05)
(-1.000145924194295 2.498527418463988e-06 -2.933745754026707e-05)
(-1.000159644162529 2.328914984964242e-06 -2.799890033036623e-05)
(-1.000172665666929 2.108376960881748e-06 -2.582173099368963e-05)
(-1.000144936057961 7.011549227032589e-06 -6.341898345325004e-06)
(-1.000158011419101 6.515597383337007e-06 -6.041177329542531e-06)
(-1.000170355012733 5.883055114516799e-06 -5.561988878875986e-06)
(-1.000145224653806 2.36516778743351e-06 -6.425532928537925e-06)
(-1.000158390906939 2.198462389912949e-06 -6.12298586858139e-06)
(-1.00017082589885 1.985559689998589e-06 -5.639007006812574e-06)
(-1.000335676439062 9.551839656058841e-05 -0.0003937480840106052)
(-1.000309311157296 6.36745535795508e-05 -0.0003133553293231762)
(-1.000370499575723 5.580187151021936e-05 -0.0002758944837657101)
(-1.000425436782128 4.332506833293323e-05 -0.0002175318275088705)
(-1.000280400105693 4.497026126114864e-05 -0.0002363062841984656)
(-1.000324783940133 3.876458975217754e-05 -0.0002044763546605769)
(-1.000363371071649 2.992241973326822e-05 -0.0001590186397954671)
(-1.000288399147602 2.774697591143229e-05 -0.0001532058236803298)
(-1.000316274151826 2.132776824430428e-05 -0.0001180483850535052)
(-1.000429024774216 8.500393293373568e-05 -0.0003757119026372003)
(-1.000510320012427 6.722857314812719e-05 -0.0003003693805602851)
(-1.000181543363219 5.116710490860083e-06 -4.899336619129836e-06)
(-1.000343974511953 6.339354901772646e-05 -0.0004353085180105349)
(-1.000440716161404 5.460632563981038e-05 -0.0004049080079827439)
(-1.000632669246794 6.821705861873319e-05 -0.0003604096041251421)
(-1.000346746667924 2.040906913688997e-05 -0.0004659253714301177)
(-1.000445933450793 1.891011194132996e-05 -0.0004203212300139423)
(-1.000558602088781 1.63071946207754e-05 -0.0003406254517778324)
(-1.000314141540889 4.024078234393347e-05 -0.0003325115253637752)
(-1.00037920976119 3.545462392289012e-05 -0.0002934488873041774)
(-1.000439599204491 2.759004256477217e-05 -0.0002318424790495044)
(-1.000315937488315 1.370803409245621e-05 -0.0003422917614404591)
(-1.000383150315502 1.222102331811221e-05 -0.0003029470251622382)
(-1.000444723872358 9.763928471552178e-06 -0.0002399236018477691)
(-1.000284455729973 2.828224303675665e-05 -0.0002486353155475528)
(-1.000331071739066 2.445144381259606e-05 -0.0002155680460512164)
(-1.0003719031164 1.888420651032294e-05 -0.0001675233176779554)
(-1.000286408672049 9.64709715462347e-06 -0.0002549969817045876)
(-1.000334181976659 8.380128564069903e-06 -0.0002214804665818036)
(-1.000376023827223 6.534238132622783e-06 -0.00017240336191524)
(-1.000258889048904 2.038619524951809e-05 -0.0001874271995496647)
(-1.00029304683305 1.739164788935257e-05 -0.0001604324580494087)
(-1.000322154860417 1.337183958039797e-05 -0.0001236227469383956)
(-1.000260551506514 6.945562372078065e-06 -0.0001916823579060015)
(-1.000295413503272 5.936299596844784e-06 -0.0001642400905546094)
(-1.000325152604616 4.577012631465433e-06 -0.0001266446324951934)
(-1.000237610983361 1.506734646315446e-05 -0.0001418146592974465)
(-1.000263294115413 1.273006141867264e-05 -0.0001202303457983485)
(-1.00028478104425 9.752661608895639e-06 -9.207608302279763e-05)
(-1.000238961316454 5.123595810866316e-06 -0.0001446966029513742)
(-1.000265094282999 4.33247947432345e-06 -0.0001227502916132153)
(-1.000286976559388 3.322089808372333e-06 -9.40390587746744e-05)
(-1.000220355159687 1.143723045263034e-05 -0.0001069831592639555)
(-1.000240210982795 9.592680173275049e-06 -9.003939878445688e-05)
(-1.000256583496704 7.330705439943486e-06 -6.863152619680362e-05)
(-1.000221448191267 3.881776966530085e-06 -0.0001089513468846996)
(-1.000241601460007 3.257406677042507e-06 -9.173556728923368e-05)
(-1.000258230230707 2.490337360771952e-06 -6.994004556341137e-05)
(-1.000206721276774 8.946063552173302e-06 -7.963834570008583e-05)
(-1.000222554285415 7.461872046750005e-06 -6.665410918942491e-05)
(-1.000235454552495 5.695172453805539e-06 -5.062797430476956e-05)
(-1.000207617435978 3.031187625004553e-06 -8.098282643689736e-05)
(-1.000223653706504 2.529283012091385e-06 -6.780121178100594e-05)
(-1.000236726051108 1.931058015201531e-06 -5.150716199982974e-05)
(-1.000196315091108 7.248073615825272e-06 -5.747554510147789e-05)
(-1.000209394104756 6.020941890360307e-06 -4.790668576136718e-05)
(-1.000219947039492 4.594784296801438e-06 -3.629595907857933e-05)
(-1.000197066972575 2.452430171418795e-06 -5.83795569492026e-05)
(-1.000210290314634 2.037903875736607e-06 -4.86723740271238e-05)
(-1.000220963492807 1.55567907581626e-06 -3.68799239210156e-05)
(-1.000188803988568 6.124840468989786e-06 -3.883180260098738e-05)
(-1.000200055824072 5.073382753223113e-06 -3.227253342200772e-05)
(-1.000209066132122 3.874126463222135e-06 -2.440858074932665e-05)
(-1.000189455519895 2.070110415394119e-06 -3.94102498809477e-05)
(-1.000200815268489 1.715259070846509e-06 -3.275991471324109e-05)
(-1.000209914173181 1.310231419428406e-06 -2.477892822679353e-05)
(-1.000183935860997 5.440668649620338e-06 -2.245567205332837e-05)
(-1.000194072733558 4.49860177519608e-06 -1.862780824276084e-05)
(-1.000202148032286 3.43827342494591e-06 -1.407360591426473e-05)
(-1.000184524190677 1.837468250716233e-06 -2.277805486848437e-05)