/*--------------------------------*- C++ -*----------------------------------*\
  =========                 |
  \\      /  F ield         | OpenFOAM: The Open Source CFD Toolbox
   \\    /   O peration     | Website:  https://openfoam.org
    \\  /    A nd           | Version:  7
     \\/     M anipulation  |
\*---------------------------------------------------------------------------*/
FoamFile
{
    version     2.0;
    format      ascii;
    class       volScalarField;
    location    "0";
    object      mag(grad(Phi));
}
// * * * * * * * * * * * * * * * * * * * * * * * * * * * * * * * * * * * * * //

dimensions      [0 1 -1 0 0 0 0];

internalField   nonuniform List<scalar> 
12689
(
0.9999648467372858
0.9999629585003683
0.9999636801284546
0.9999682118675465
0.9999781481199448
0.9999670037555234
0.9999630386136936
0.9999607843412478
0.9999611213628357
0.9999652689660762
0.9999748582278456
0.3333321348355129
0.9999946211449473
0.9999912647998302
0.9999882933764277
0.9999859364684198
0.9999845049651024
0.9999844214629902
0.9999862541621268
0.9999907518115897
0.9999988736357384
1.000011802148349
0.3333320715340169
0.9999943345195356
0.9999907813033876
0.9999876047893048
0.9999850323428914
0.9999833740128509
0.9999830538479356
0.9999846451467655
0.9999889073572759
0.999996818702021
1.000009592537017
0.3333328942884605
0.9999980634393896
0.9999970608047101
0.9999965237869396
0.9999966986176808
0.9999978935796546
1.000000498551672
1.000005003763503
1.00001201453746
1.000022256079715
1.00003655853442
0.3333328441035299
0.9999978367869212
0.9999966805372454
0.9999959866480523
0.9999960011648636
0.9999970335164118
0.9999994767542884
1.000003827239202
1.000010700577496
1.000020837836687
1.000035092096775
0.3333335391822252
1.000000981448966
1.000001950673783
1.000003417171798
1.000005623722233
1.000008856667326
1.000013456885525
1.000019827811816
1.000028437509325
1.000039810108043
1.000054499936808
0.3333334998430356
1.000000804257531
1.000001654984801
1.000003002899614
1.000005091738144
1.000008209912731
1.000012701966457
1.00001897717118
1.000027512244651
1.000038843412246
1.000053540947072
0.3333340751745264
1.000003402911528
1.00000599049313
1.000009073790345
1.000012880306277
1.000017665129933
1.000023715696049
1.00003135286414
1.000040925962994
1.000052798575304
1.000067321078454
0.3333340446204186
1.000003265688697
1.000005762737082
1.000008757306452
1.000012478416902
1.000017183524601
1.000023163588311
1.00003074447161
1.000040282284506
1.000052149353139
1.000066706687404
0.3333345105791914
1.000005367217355
1.000009254395771
1.000013615801653
1.000018658083238
1.000024602652927
1.000031686247887
1.000040157912477
1.000050270750625
1.00006226646568
1.000076350623051
0.3333344869900634
1.000005261615378
1.000009080089859
1.00001337562402
1.000018356590578
1.000024246731746
1.000031285898878
1.000039727192291
1.000049828811068
1.000061838567549
1.000075968910458
0.3333348548161686
1.00000691836114
1.00001182254857
1.000017170024643
1.000023145448002
1.000029938542266
1.000037741994687
1.000046746265598
1.000057130255797
1.000069046759328
1.000082601855653
0.3333348366125036
1.000006837164133
1.000011689296101
1.000016988028848
1.000022919759386
1.000029676354188
1.000037453140394
1.000046443772604
1.000056830893617
1.000068771476399
1.000082375950958
0.3333351171997093
1.000008099486711
1.000013772080595
1.000019855413044
1.000026514014685
1.000033910533358
1.000042202049639
1.000051533893526
1.000062030357217
1.000073781835217
1.000086828255046
0.333335103021646
1.000008036504206
1.000013669342079
1.000019716394027
1.000026343853829
1.000033716285663
1.000041992977203
1.000051321757086
1.000061829652362
1.000073609893557
1.000086705106215
0.3333353060440712
1.000008948900427
1.000015170614903
1.000021774475602
1.000028908663069
1.000036714800959
1.0000453233938
1.000054847294146
1.000065372897057
1.000076948962373
1.000089573309745
0.3333352947170806
1.000008898802302
1.000015089389505
1.000021665604644
1.000028777192664
1.000036567489497
1.000045168864599
1.000054696159002
1.000065237804666
1.000076844513124
1.000089515768215
0.3333354280396791
1.000009497316333
1.000016071908304
1.000023007733326
1.000030441554695
1.000038500736813
1.000047298240007
1.000056926026677
1.000067446759219
1.000078883894972
1.000091210609707
0.3333354185324591
1.000009455434676
1.000016004368584
1.000022917970457
1.000030334484732
1.000038382839431
1.000047177627533
1.000056812469698
1.000067351630763
1.000078819989066
1.00009119178768
0.3333354878181516
1.000009766060933
1.000016513083499
1.000023610355303
1.000031188791727
1.000039368573573
1.00004825396178
1.000057926721343
1.00006843811952
1.00007979969354
1.00009197329343
0.3333354791959869
1.000009728174936
1.000016452189216
1.000023529849919
1.000031093507207
1.000039264827994
1.000048149589298
1.000057831053001
1.000068361881332
1.000079754784716
1.000091972408536
1.000030988416349
1.000028727181077
1.000055876622878
1.00005444959213
1.000073104601166
1.000072222456506
1.000084845507616
1.000084318658089
1.000092415935177
1.000002270311871
0.9999955830466764
0.9999920471742365
1.000092711892945
1.000097878547842
1.00009773166842
1.000101186211951
1.000101134344233
1.000103222389442
1.000103229354171
1.00010438085644
1.000104421688965
1.000104902836357
1.000104959101881
1.000060586126426
1.000018784508429
1.000057395136652
1.000095320677738
1.000057355047368
1.000091924411113
1.000055211644748
1.000090161275557
1.000080539026422
1.000110934900083
1.000079274758517
1.000109996092571
1.000095592301701
1.000122005459457
1.000094874400936
1.000121556096203
1.000105134124836
1.000128050750734
1.000104756233043
1.000127890219148
1.000111003164538
1.000131004970906
1.000110836056542
1.000131012093988
1.000114477606103
1.000132147855477
1.000114440145901
1.000132250213778
1.000116436082281
1.000132320667
1.000116477277507
1.000132475636557
1.000117471868835
1.000132069144781
1.000117559503449
1.000132252069929
1.000117971589304
1.000131736914827
1.000118084872304
1.000131933716295
1.000118167131066
1.000131524604748
1.000118291767797
1.000131727047075
1.00002909482606
1.00006678944988
1.000022354958527
1.000117546251309
1.000180880244672
1.000257759369087
1.000138066606354
1.000189194175413
1.000247454721174
1.000189401171849
1.000234215196061
1.000112670471219
1.000178500726928
1.000258615844263
1.00011084266401
1.000180717552173
1.000223615534721
1.000135887064342
1.000188833264103
1.000249336882188
1.000134912411828
1.000189135171138
1.000250177923768
1.000147615023867
1.000189899904071
1.000236328306025
1.000147204855183
1.000190208981627
1.000237370586338
1.000152563229286
1.000186510648244
1.000222581976552
1.000152501245854
1.000186946696584
1.000223591309167
1.000153650693621
1.000181207766284
1.000209674301934
1.000153781827011
1.000181698679401
1.000210577477984
1.000152698709269
1.000175429280226
1.000198345628921
1.000152927521826
1.000175921384968
1.000199131345562
1.000150843240665
1.000169988420161
1.000188893476568
1.000151116059244
1.000170456895877
1.000189573953042
1.000148788640048
1.000165336393127
1.000181397278323
1.000149077494465
1.000165774399099
1.000181992731952
1.000146966447017
1.000161716457902
1.000175840361041
1.000147258332721
1.000162126725778
1.000176372847659
1.000145634313966
1.000159254537118
1.000172174772866
1.000145924627696
1.000159644557147
1.000172666002474
1.000144936102646
1.00015801145857
1.000170355045501
1.000145224677243
1.000158390928098
1.000170825916717
1.000335758492174
1.000309362264492
1.000370539176857
1.000425461370246
1.000280429029075
1.000324805589738
1.000363384158033
1.000288411265067
1.000316281344699
1.000429098934948
1.000510367358987
1.000181543388307
1.000344071234802
1.000440799590805
1.000632736478581
1.000346855381713
1.000446021925099
1.000558660202128
1.00031419761489
1.00037925342927
1.000439626448587
1.000315996145562
1.000383196261023
1.000444752688877
1.000284487030772
1.000331095265005
1.000371917321455
1.00028644122099
1.000334206530365
1.000376038704436
1.00025890681658
1.000293059849757
1.000322162588622
1.000260569896906
1.000295427004307
1.000325160631912
1.000237621150156
1.000263301422184
1.00028478532959
1.000238971795629
1.000265101824202
1.000286980985309
1.000220360946515
1.000240215081367
1.000256585878106
1.000221454132684
1.000241605672002
1.000258232678981
1.000206724487259
1.00022255653414
1.000235455850003
1.000207620718999
1.00022365600769
1.000236727379152
1.000196316768765
1.000209395270163
1.0002199477086
1.000197068679333
1.000210291500961
1.000220964173931
1.000188804761133
1.000200056357593
1.000209066437452
1.000189456298474
1.000200815806458
1.000209914480973
1.000183936127877
1.000194072917139
1.000202148137209
1.000184524451737
1.000194748064735
1.000202893710825
1.000191151814945
1.000198785741624
1.000182101198367
1.000191786769717
1.000199482827009
0.9999100016822899
0.9998909670729702
0.9998712627563678
0.9998515476052652
0.9998331219853916
0.9998182967349191
0.3333280387258097
0.999975959799144
0.9999594139128295
0.9999421150434462
0.9999238129429517
0.9999043301743493
0.9998836194965202
0.9998618596322117
0.9998396128338961
0.9998180794220887
0.9997994925941192
0.3333278995951479
0.9999753237587969
0.9999583173840717
0.9999405007326462
0.9999215954519247
0.9999013906005557
0.9998797983335552
0.999856948286592
0.99983334528858
0.999810129661781
0.999789497092864
0.9999081602515428
0.9998976245749102
0.9998900207969162
0.9998876038661596
0.3333291924987386
0.999981231212999
0.999968477286041
0.9999554023372645
0.9999419589130045
0.9999282006805742
0.9999143433870598
0.9999008560309768
0.9998885956882865
0.9998790015670344
0.9998743601536478
0.3333290754862443
0.9999806975138764
0.9999675621088956
0.9999540659835416
0.9999401436141327
0.9999258286957897
0.9999113151753611
0.999897049430187
0.9998838680690625
0.9998731990889349
0.9998673421089587
0.9999366603991653
0.9999423487355793
0.3333302742319387
0.9999861632157998
0.9999769120518123
0.9999676679456047
0.9999585249499462
0.999949684020041
0.9999415071932446
0.9999345915159964
0.9999298680807673
0.9999287292681087
0.9999331802743164
0.3333301774480059
0.9999857228257798
0.9999761609959054
0.9999665803410367
0.9999570642218439
0.9999478030129185
0.9999391491197382
0.9999316926774396
0.999926363969327
0.9999245667432882
0.9999283399719393
0.9998108082980713
0.9997876401957092
0.9997752984393088
0.999893747453093
0.9998781650846559
0.9998698474931335
0.9999563392224516
0.9999460527803887
0.9999405849472939
0.3333312596779298
0.9999906470132017
0.3333311808497181
0.9999845395433
0.9999902891958579
0.9999313903426644
0.9998854325090012
0.9999201547008042
0.9999815015057761
1.000021519362364
0.9999704660308494
1.000010341357134
0.9999645564717432
1.000004415843105
0.9998153863459651
0.9998442619361123
0.999788306348428
0.9998125566257884
0.9997737612685959
0.9997962757365182
0.9999126938129574
0.9999505057332473
0.9998950273584277
1.000081692111645
1.0001208884816
1.000262800362256
1.00021913985898
1.000240580005461
0.9992752777910376
1.000099691140929
1.000277048159147
0.9999959493057325
1.00005722834659
1.000272496899361
0.9999810603998509
1.000047752848274
1.000264164903437
1.000070517457323
1.000137872620565
1.000066190774441
0.9997785718580601
0.9998349808035426
0.9999013614164536
1.000036274668832
0.9998126207803791
0.9999761340048848
0.9999901501498465
0.9997131918901832
1.000357019571978
1.000516412151748
0.9999732205962283
0.9999684724530156
0.9999777983162962
0.9999720632971909
0.9999786698448121
0.9999839326510663
1.000250027743874
1.000449070069877
1.000662016935059
1.000340664464813
1.000463191181989
1.000665640478241
1.000364182992693
1.000523889241884
1.000817461500483
1.000350332299592
1.000547598043415
1.00081866196739
1.00001442363469
1.000521077878811
1.001156019837516
1.000247009045998
1.000552241689077
1.001063507816484
1.000275452610112
1.000003257777841
1.000494690109403
1.001191719969625
1.000558823521416
1.001071553948145
1.000693182378683
1.000856470242621
1.00186230270843
1.001128693347019
1.00063140940378
1.000704761204945
1.001984848313578
1.001137801055391
1.000868394657469
0.3333249559482241
0.9999618233333224
0.9999348848186184
0.9999056473323709
0.9998730485811904
0.9998358827912791
0.9997927638723545
0.9997421033640431
0.9996821157744152
0.999610771886606
0.9995245259618269
0.3333245504849424
0.9999599593756644
0.999931629056007
0.9999007574172666
0.9998661454057148
0.9998264021857658
0.9997798792653581
0.9997245996110459
0.9996581740766155
0.9995776344108794
0.999478874848322
0.3333243415010184
0.9999589981982597
0.9999299481892077
0.9998982282118622
0.9998625654963631
0.9998214678821812
0.9997731403070624
0.9997153848108086
0.999645472649293
0.9995599436269873
0.9994541434961141
0.9999667501581864
0.9999434685911284
0.9999184884021353
0.9998910751146972
0.999860451800695
0.9998258112523261
0.9997863603269764
0.99974142761541
0.9996907181213635
0.9996351226850898
0.3333256672510944
0.9999650918246638
0.9999405842266414
0.9999141842871671
0.9998850527090519
0.9998522758827532
0.9998148613376662
0.9997717565434788
0.9997219114888933
0.9996644218699802
0.9995988307141678
0.3333254810858047
0.999964237161497
0.9999390960723331
0.999911959850227
0.9998819327691989
0.999848026547311
0.9998091455471239
0.9997640899780953
0.9997115957331957
0.9996504539886336
0.9995798507690314
0.9999319022475273
0.9999097319824977
0.9998855790219974
0.99985911559025
0.9998301780351236
0.9997989240105248
0.9997661249274391
0.9997337329797144
0.3333268482766377
0.9999705096020579
0.9999499942710334
0.9999281952996898
0.9999045960571958
0.9998786951492621
0.999850043466925
0.999818319594331
0.9997834739208643
0.9997459995727633
0.9997074474728024
0.3333266857867183
0.9999697651465559
0.9999487042197517
0.9999262811006239
0.9999019381924518
0.9998751223550971
0.9998453169541488
0.9998121106795873
0.9997753337355577
0.9997353235867964
0.9996934583661139
0.9993787488952101
0.9993470301978465
0.9996998368296027
0.9995539226690021
0.9997058468167022
0.9996713172576162
0.9996531480389932
0.9993147889283807
0.9995261346575692
0.9993072974947835
0.9994538180138396
0.9993852408678385
0.9992248820728625
0.9989821808054875
0.9988384915865807
0.9993581384308191
0.9993312867968538
0.9996609546481253
0.9996475248903181
0.9995888274132707
0.9996272244965171
0.9995496739330739
0.9988153315747049
0.9992116034699844
0.998936847579508
0.9988204127098954
0.9987843913995613
0.9987241719566292
0.9984556273952421
0.999330259694465
0.9996716774633033
0.9997179786674885
0.9992912564102314
0.9996468947871631
0.9996927092711589
0.9997200659288736
0.9997323323055448
0.9996862912670131
0.9987591732281788
0.9985351184280309
0.9983912099873898
0.999217944488031
0.9995693997961569
0.999614519720704
0.9996662203882343
0.9988976011355368
0.9995651253144339
1.000006047809925
0.9985137906069862
0.9994546243168935
1.002985393165769
0.9999246125973917
1.000482255022863
1.001198706510105
0.9984454835675362
0.9990860349279751
1.003011501043378
0.9999104276241016
1.000442488027074
1.00123174032767
1.003834021799848
1.002021951713594
1.003953492714748
1.002162490171761
0.9997258794332626
0.9999254136383221
0.9999741295053833
0.9999644583501986
1.000142981880983
0.9999420493359787
1.000119805953953
1.00017844482913
1.000008204521157
0.9996353860738826
1.000162581535256
1.000162175054217
1.000220506751296
1.000122145172015
0.9999735147818407
1.000157110017341
1.000164235165685
1.000157723241747
1.000151120000058
1.000115819482148
1.000113511495156
0.9999135632152445
0.9999332168797651
0.9999206263760695
0.999693833392702
0.9998950754105793
1.00011381581151
1.000104604664109
1.000778437869759
1.00094929147187
1.000596443996214
1.000778016820289
1.000078509560117
1.000223876570622
1.000399332929769
1.00047476635514
1.00052875355247
1.000977495949977
1.000570816770333
1.000888082341734
1.001142912486962
1.001655216259386
1.001333996270607
1.00100009501508
1.00025426750656
1.000288424694159
1.000488729598099
1.000484217265697
1.000549514380084
1.000750223227459
1.000571013296232
1.000853772461473
1.001013690747101
1.001243378814418
1.000818380548787
1.000952411666517
1.000599569670498
1.00054266947908
1.00072453497557
1.000545836761598
1.000740188266657
1.000644970103629
1.000536058431957
1.000993643549918
1.000789381879678
1.00096263497497
1.000555556517556
1.000787708262455
1.000805696344116
1.000669147559882
1.000547377369591
1.000749786856838
1.000743969494051
1.000556290089857
1.000554258745762
1.000576216410821
1.00055126431249
1.000828427082304
1.001000786675108
1.001011761717351
1.000816948411356
1.000810066240461
1.000683210028359
1.000675368202176
1.000060221399527
1.000215021061666
1.000388092957284
1.000358686490116
1.000193849114488
1.000471624853504
1.000463005562878
1.000984465098844
1.000500120213816
1.000998780410117
1.000570175203825
1.000896732458049
1.000567435642538
1.000916205897578
1.001689366010079
1.001185290490257
1.001770389712435
1.001414493994687
1.0013579349541
1.001012365612349
1.001040567746183
1.000314549231368
1.000282665392224
1.000230970886024
1.000487835215879
1.000482582399545
1.000490492310784
1.000477860285336
1.000757691753848
1.000571576313746
1.000862318622998
1.000557499044828
1.000774799646371
1.000572001508182
1.000881728446397
1.00131471289137
1.001028620787328
1.001264620290564
1.000827966080567
1.000964009843696
1.000849053386053
1.000990731021688
1.000285130899223
1.000227123982831
1.000221321603445
1.000491914394237
1.000486118844087
1.000476522865672
1.000474063033419
0.9999857874814256
1.00035129335472
1.000339557133182
1.000188644666253
1.000180552313223
1.000460737151939
1.000456987872571
1.001001654583174
1.000485959869924
1.001005720737642
1.000566532465195
1.000920520326619
1.000564888635258
1.000926961749504
1.001789220575096
1.001201289270736
1.001818055747395
1.001447629481335
1.001427595151349
1.001046941554545
1.001056567634878
1.000558322649366
1.0007847405335
1.000778778708945
1.000571866628382
1.000886067565096
1.0005713166001
1.00089256305243
1.001083866102982
1.001344010245114
1.00132630003306
1.000861376551744
1.000853925768225
1.000996789653658
1.001005952276492
1.000816756464315
1.001000888763951
1.001820775022579
1.001438296346751
1.001072738547077
1.001333417700398
1.001050510941731
1.000827458274033
1.001015621151732
1.001961608803926
1.001532196438052
1.001466126233827
1.001415651754142
1.001089391283351
1.001357828812713
1.0020205525423
1.001571111130094
1.001547564479395
1.001151716772886
1.001449629087771
1.001429076533734
1.00087305239247
1.001058635639873
1.001070995119192
0.9988813661859718
0.9989072604051508
0.9987265082669281
0.9988372498213912
0.998808033346528
0.9988969620655666
0.9989473370410004
0.999103962118508
0.9990633115843239
0.9991632087232223
0.9990148291094819
0.9992551323529746
0.9990242139981848
0.998701486071369
0.9986634055075571
0.9988661284325773
0.998841511557003
0.9990373684525344
0.9987815564420918
0.9990967644076791
0.9991605269447122
0.9991313655017211
0.9989953729037135
0.9989718698292195
0.9986318958997723
0.9985255234031799
0.998551805847828
0.9985077920271725
0.9986607268077612
0.9987805133096628
0.9986134664480457
0.9984556451643698
0.9985611779940892
0.9983875919742328
0.9982041413293938
0.9984334156162147
0.9981099837411785
0.998427371556676
0.9981573978405841
0.9984077579072498
0.9992186250971817
0.9988191880216222
0.9991897813309844
0.9987864791166449
0.9987260083083054
0.9991873077674693
0.999223394988663
0.9994363033150075
0.9987251343018974
0.9992551137157428
0.9988937001279005
0.9991853927401758
0.9991217121736149
0.9987619776636993
0.9986223410413266
0.9990572118771602
0.9991510787102821
0.9985715640891852
0.9984496016255472
0.9990447398969977
0.9990517682471783
0.99864663165926
0.9991458621798048
0.9991738526533449
0.9987173877901654
0.9992361720533803
0.9993793576857684
0.9984264464886305
0.9990745658789316
0.9986396753634335
0.9992031530598987
0.9995206183304466
0.9992955426425478
0.9994903162101806
0.9993000093605559
0.9993565119935168
0.9995797299097171
0.9999169037091803
0.9995874181034985
0.9993943088350046
0.9992356631834747
0.9994304492618502
0.9993840849153356
0.9991797766873241
0.9994815705089428
0.9992621209174921
0.9994550485134787
0.9995842915398598
0.9991762405062179
0.9992110508405988
0.9994983046345859
0.9992642160568027
0.9993144901627694
0.999559498231856
0.9996296558920549
0.999831551754904
0.9998924712919718
0.9994248042568991
0.9995410518184107
0.9992426801477688
0.9993506126137803
0.9997525623315228
0.9998338455166339
0.9998741112876161
0.9996807453442417
0.9997992081611689
0.9999936780795626
0.999975691818529
1.000152817671407
0.9996787849132079
0.9997615331934746
0.9998469592405108
0.9997063784090372
0.9998897531498482
0.9995845240853167
0.9996546419791781
0.9986328771139853
0.9985901994836484
0.9984180367524373
0.9983597500173823
0.9983460755318253
0.9981486585520709
0.9982816224236095
0.9980620655814666
0.998031623606923
0.9979081789420583
0.9980965403401788
0.9980013624190611
0.9991081752332913
0.9987209442892194
0.9990695097547876
0.9985891004915578
0.9990349196831103
0.9985375618808556
0.9989994465759927
0.9984020315138195
0.999020692859982
0.9990224758322173
0.9984785478421332
0.9983278655115985
0.9989831228319487
0.9989769422776372
0.9992012397523247
0.9982898860902581
0.9991465226144968
0.9983747461482304
0.9990436016805108
0.9982939850701521
0.9989953946008312
0.9993183042250902
0.999333652231513
0.9991735580491627
0.9991605555180688
0.9994693185354692
0.9994523677624078
0.9991294619341877
0.9995466497141712
0.9991554770288683
0.9991862762704435
0.9994848348430293
0.9994654671726578
0.9991229858424292
0.9991478209069615
0.9998167711276298
0.9995911969223767
0.9997937029261106
0.9993965112582722
0.9993522458837164
0.9992167373231683
0.9991763982924105
0.9996651185458936
0.9998830287015397
0.9996683756958751
0.9998744878458194
0.9996473586740213
0.9995723891602103
0.9995568531364701
0.9988294290707789
0.9986780035901688
0.998613575298818
0.9990222909206936
0.9992570082629271
1.000362752188048
1.002917147924904
1.000885251516656
0.999532930977877
0.9993332501812182
0.9999654479372576
1.000595374923411
1.000164652806317
1.000946123891874
1.002804764095182
1.002359174062873
1.001061655998766
1.001266455955565
1.000351694705254
0.9996844859720028
1.000099687207704
1.000494057818474
1.000997420716429
1.000284600222193
1.000987996378267
1.00118619393662
1.001779941011775
1.00220487321554
1.001268963533032
0.9981426981366804
0.9984816612571903
0.998876508422168
0.9984917128429177
0.9991119792385156
1.000251100681957
0.9987248263306705
0.9999359969388614
1.003025102905026
1.002964173110425
1.000799383486889
1.000547149292068
0.9987897556741228
0.9993305130632162
0.9994756062710962
0.9992197154418841
0.9999138821229198
0.9989214206289007
0.9997797681501531
1.000519718290577
1.000118197528331
1.000928381285436
0.9991609262950067
1.000305614798131
0.9999956602056728
1.000874712722954
1.002547088725133
1.002862378589921
1.00241529506103
1.001009014441733
1.001263407953694
1.000851408256644
1.001246015007447
0.9999828333563129
1.000335923516456
1.000294872213511
0.9995222581851629
0.9996384448323498
1.00006065227375
0.9999593098686467
1.001002600700404
1.000450593363704
1.001011895704877
1.000250568939978
1.000979547684887
1.000160797269204
1.000951383325274
1.001818218798614
1.00122592342489
1.001909096524793
1.002379532977676
1.002256800529861
1.001272929294766
1.001275359978182
0.9980585067828392
0.9979254972953137
0.9983940823960609
0.9982381304754842
0.9986257767255748
0.9998519777592652
0.9984667257613677
0.9997154994569224
1.003211495491933
1.003077123098603
1.000477765694552
1.000357487607235
0.9992949263735539
0.9983377483298266
0.9992390462770636
0.9988460211011069
0.9997461599875926
0.998725868089595
0.999692863271699
1.000248522994796
0.9999646202867392
1.000859803240275
0.9989661402161267
1.000155059453628
0.9999151561609289
1.000835123335141
1.003021172800152
1.00262337001002
1.002577409936354
1.000807878318693
1.0012398204206
1.0007343879617
1.001228721138676
0.9998882313401954
1.000284590193215
1.000268297084256
0.9994938318530557
0.9994492492819501
0.9999339563916003
0.9998937873224001
1.001013441077661
1.000429523452624
1.001015350631803
1.000138065162488
1.000943138227117
1.000101854878407
1.000929230836769
1.001930226845462
1.001240269080384
1.0019625860679
1.002451262270058
1.002407936780666
1.001274455944672
1.001271967758171
1.00371552127328
1.003467818166775
1.002743454161114
1.001974457939687
1.002527290618221
1.003971638129238
1.003832173000706
1.003015057770927
1.003575529677935
1.002823085110214
1.00213579555036
1.002767380172043
1.002597693505021
1.003793617909416
1.002793338223663
1.003855830242208
1.003129738490193
1.003060299974263
1.002203537454437
1.002868868077301
1.002807358242625
1.000255457143716
1.00018237162618
1.000173542871093
1.000269325785844
1.000210047654328
1.000232488755591
1.000177104163093
1.000167307510633
1.000161413976824
1.000179800359222
1.000267517194905
1.000228862689267
1.000340586202102
1.000156606770311
1.00015749723085
1.000182939071443
1.000186748204038
0.9998916399716079
0.9997591115420156
0.9998339184408986
0.9998528547737884
0.9998147227339131
0.9999070241146579
0.9998369572928113
0.999923615876348
1.000090774265837
0.9999915910162908
1.000059848286832
1.000050013878004
1.000185924793498
1.000188718824027
1.000090395972232
0.9998280929968945
0.9998536151858545
0.9998408623509444
0.9997968661808611
0.9997813258220613
0.9998706951273735
0.9998607251691588
0.9999785328366172
0.9998424080734645
0.9999189003638204
0.9999773480770262
1.00004550148769
0.9999688845382814
1.000033478795072
1.000027616723857
1.000065386209153
1.000036534289045
0.9999292351836931
1.0000652865357
1.000005396789579
0.9999496816861924
0.9998101266102638
0.999829314524368
0.9998233920713405
0.9997709269799749
0.9997654577681278
0.9998507495976259
0.9998467397451857
0.9999464393488283
0.9998782780913525
0.9999312472936012
0.9999638299938004
0.9999845795483604
0.9999590722756899
1.00000878481826
1.000075254008961
0.9999789717312462
1.000036186598166
1.000019359714214
1.000073480900599
1.000007624018741
1.000030723109868
0.9998460285796413
0.9997694467440846
0.9997979680432648
0.9997035599804187
0.9998540616428089
0.9997597962533968
0.999789926651899
1.000444410395343
1.000516107921563
1.000487896121766
1.000564182885199
1.000632772406362
1.000697183365682
1.000572301310352
1.000600754549426
1.000339330918561
1.000437521473994
1.000421473120907
1.000722256108186
1.000541134007459
1.000717826526122
1.0005194219897
1.000459879905881
1.000526721494258
1.00049441864577
1.000571388571542
1.000502305850158
1.000542998884636
1.000729527797819
1.000646367226921
1.000715740962626
1.000587915277243
1.00059413573853
1.00064397248701
1.000655198958807
1.000533867534697
1.000464099865003
1.000536790894785
1.000504101307699
1.000504732450886
1.000580108952106
1.000576716234422
1.000668690261135
1.000737676624357
1.000742295339494
1.000597535406676
1.000598515236346
1.000666616743771
1.000662957050308
1.000353537700419
1.000448824070483
1.000354710742591
1.000405630567782
1.000495762488185
1.000486584273293
1.000432530380724
1.000818309557951
1.000870756626505
1.000810440394399
1.000773150077214
1.000767769457722
1.000824132307269
1.000863577999551
1.000311298732624
1.000308169107122
1.000323845873574
1.000491721837442
1.000480051002358
1.00043482096166
1.000434353123476
1.000602062028644
1.000547500496062
1.000612071281119
1.000524180562306
1.000597076822096
1.000530701260662
1.000613978504443
1.000832111116587
1.000819779380249
1.000875960553318
1.000776689901548
1.000778668561375
1.000828626290895
1.00087985636592
1.000191996074898
1.000027851677232
1.000115989063203
1.000087559287591
1.000098062805728
1.000182625924333
1.000128257867339
1.000675335691932
1.000665441244924
1.00051356698971
1.00054693493955
1.000676579945874
1.000542346634097
1.000661755062943
1.001279679456033
1.001332672492841
1.001167453035677
1.001109549534765
1.0012630707891
1.001121106854174
1.001350221631449
1.000335988057837
1.00027255513145
1.000240852336431
1.000320195509081
1.000266886717285
1.000339942299571
1.000315143255049
1.000639567746878
1.00061833051176
1.000561363616008
1.00055369531581
1.00063627261694
1.000621841360924
1.000563006307964
1.001050934033951
1.001139874153514
1.001053610604781
1.000994425178242
1.000985872745453
1.001060536264457
1.001128708750589
1.000341355806754
1.000277886848161
1.000276386154332
1.00035730696853
1.000276057882715
1.000352727037741
1.00034360467261
1.000168756435183
0.9999946310129366
1.000105764415199
1.000078811855857
1.000072050742392
1.000174810502389
1.000097848423013
1.000669892576131
1.000651507197214
1.000490414942469
1.000530517434018
1.000671047053252
1.000527788820095
1.000649032679293
1.001323584246358
1.001388574397813
1.00119651660621
1.001145979951041
1.001316149009015
1.001150960816058
1.001396359718572
1.000648122995999
1.000558625577878
1.000630260744803
1.000566670735946
1.000631606031965
1.000646895408937
1.000566778255838
1.001074251567455
1.001077669837386
1.001148950317986
1.001001376723453
1.00100666598521
1.001068332379764
1.001155845471897
1.000662232804565
1.000755881819062
1.000790296083828
1.000676382572178
1.000774290903002
1.000915881441246
1.000845826971914
1.00090688065014
1.001894382621676
1.001899927145403
1.002026315359319
1.001717218813825
1.001750072728243
1.001856207785291
1.002070626211432
1.001270376275399
1.001214982670434
1.001188788365051
1.001117505758767
1.001202302239275
1.001284475812743
1.000709210296449
1.000908486250031
1.000827068179839
1.001998793921766
1.002002571681895
1.002171146138727
1.001824072718067
1.001839491063128
1.001980737027773
1.002192213707268
1.001304695333903
1.001144721914227
1.001225302815687
1.001198861690036
1.001233147517421
1.00129596048457
1.001206521344595
1.000872001093906
1.000923483683668
1.000928563600592
0.9992219618299844
0.9991665314728678
0.9990428011979101
0.9989290123318342
0.9990752638401784