/*--------------------------------*- C++ -*----------------------------------*\
  =========                 |
  \\      /  F ield         | OpenFOAM: The Open Source CFD Toolbox
   \\    /   O peration     | Website:  https://openfoam.org
    \\  /    A nd           | Version:  7
     \\/     M anipulation  |
\*---------------------------------------------------------------------------*/
FoamFile
{
    version     2.0;
    format      ascii;
    class       volScalarField;
    location    "0";
    object      p;
}
// * * * * * * * * * * * * * * * * * * * * * * * * * * * * * * * * * * * * * //

dimensions      [0 2 -2 0 0 0 0];

internalField   nonuniform List<scalar> 
12689
(
7.886589018131254e-05
9.126311112821749e-05
0.0001044357736801
0.0001169178184402701
0.0001261868612217337
6.885332478090024e-05
8.000537987420476e-05
9.281827562560249e-05
0.0001065554990022252
0.0001197702847802272
0.0001299334928685502
3.608423918580262e-05
3.747431437964173e-05
4.019206140463478e-05
4.418876749635729e-05
4.939881912683672e-05
5.567602941476455e-05
6.271371639792051e-05
6.993563004467194e-05
7.635021578682508e-05
8.036631111393412e-05
7.95829128404904e-05
3.655560555883384e-05
3.796648970339882e-05
4.073176388080458e-05
4.48108545256289e-05
5.014843619172252e-05
5.661055124957733e-05
6.390398588316753e-05
7.146542171362136e-05
7.831194666539565e-05
8.284973998646589e-05
8.265210409242425e-05
2.951086663474327e-05
3.055856856020193e-05
3.252303402873164e-05
3.526115484090213e-05
3.858914729190383e-05
4.22258755721322e-05
4.57257592726197e-05
4.839457903462586e-05
4.91883489232821e-05
4.660255375257949e-05
3.857252375623829e-05
3.003870253293594e-05
3.110858999860774e-05
3.312090556070371e-05
3.593755328920648e-05
3.938089004566532e-05
4.31764332312834e-05
4.68846803497946e-05
4.981498257437393e-05
5.092117435093124e-05
4.86857801291091e-05
4.1013359261042e-05
2.24195083702376e-05
2.310374094242671e-05
2.429711976584737e-05
2.579414997562639e-05
2.733569078219916e-05
2.856345218565588e-05
2.896947586560419e-05
2.783824051198391e-05
2.418561414691845e-05
1.670512861492236e-05
3.741793002756363e-06
2.297787320170454e-05
2.368334196693462e-05
2.492082740861299e-05
2.648738328073317e-05
2.812680226066011e-05
2.948338011531388e-05
3.005029711361401e-05
2.911005930385004e-05
2.567103832929745e-05
1.841051324984556e-05
5.644674528648511e-06
1.521750214880257e-05
1.554690652340272e-05
1.600633288122881e-05
1.635492416012616e-05
1.629362100762462e-05
1.543209260317929e-05
1.325480648263767e-05
9.086460360072375e-06
2.062395750319978e-06
-8.885885691014103e-06
-2.501407665700441e-05
1.578693477269659e-05
1.613531132737642e-05
1.663299921176872e-05
1.703988913994199e-05
1.705756963678919e-05
1.62955763758243e-05
1.423653233268109e-05
1.020032441631209e-05
3.312907646096788e-06
-7.510047450991378e-06
-2.354830554133819e-05
8.290526879671337e-06
8.295225440996855e-06
8.095628835021919e-06
7.436001173308622e-06
6.003535955519257e-06
3.40703805609304e-06
-8.425098450020963e-07
-7.347983791922226e-06
-1.68333192432249e-05
-3.013368009799389e-05
-4.815744807301258e-05
8.857736568806221e-06
8.878588024647484e-06
8.710730408511076e-06
8.097948755487175e-06
6.726576736971036e-06
4.203624819626354e-06
3.664453021997281e-08
-6.383164090895255e-06
-1.57891217348385e-05
-2.903018303233132e-05
-4.703356137056349e-05
1.983271495133288e-06
1.707390849830328e-06
9.466797439188826e-07
-5.557451951794417e-07
-3.109513579794968e-06
-7.088313497176353e-06
-1.293777869033049e-05
-2.117796251448439e-05
-3.239586884503893e-05
-4.722212677405811e-05
-6.628488394743652e-05
2.540431680439566e-06
2.277857623813365e-06
1.542637358336442e-06
7.663023389356492e-08
-2.431570513242931e-06
-6.358358018946502e-06
-1.215348354558582e-05
-2.034305983096259e-05
-3.152260307511229e-05
-4.633407512112703e-05
-6.541979596259303e-05
-3.41207466800102e-06
-3.916347776189095e-06
-5.128553536444812e-06
-7.299085354640753e-06
-1.072557280347557e-05
-1.575635037809634e-05
-2.278981673910254e-05
-3.22676523444765e-05
-4.46584506606149e-05
-6.042787682996642e-05
-7.999158691001454e-05
-2.868235308623879e-06
-3.36173417451238e-06
-4.553838137725837e-06
-6.696654700345125e-06
-1.009009943919278e-05
-1.50856411055916e-05
-2.208596772605714e-05
-3.153849361497658e-05
-4.391920039433729e-05
-5.970282861286167e-05
-7.931551966031449e-05
-7.661375598567393e-06
-8.337975392429425e-06
-9.887846265547825e-06
-1.25522343415893e-05
-1.661439268349617e-05
-2.239739567252068e-05
-3.025766376655659e-05
-4.057229609952849e-05
-5.371772083755515e-05
-7.003731194228645e-05
-8.979633077173364e-05
-7.130549034046641e-06
-7.798389535558778e-06
-9.332362184053959e-06
-1.197567244248258e-05
-1.601411135190923e-05
-2.177404355829414e-05
-2.961610953224584e-05
-3.992268614894683e-05
-5.307656234243823e-05
-6.942840829494024e-05
-8.925131501206104e-05
-1.059016852680771e-05
-1.138168663618412e-05
-1.315532338990126e-05
-1.614422062624545e-05
-2.061956003108395e-05
-2.6884761907516e-05
-3.526543392367479e-05
-4.609331742776582e-05
-5.968242076711362e-05
-7.629598578156148e-05
-9.610391574081351e-05
-1.00694301666595e-05
-1.085357546476421e-05
-1.261417008004575e-05
-1.558643263187732e-05
-2.004419037695034e-05
-2.62941829135683e-05
-3.466610584077362e-05
-4.549658801472684e-05
-5.910524745566117e-05
-7.576142136313007e-05
-9.564114919050003e-05
-1.208317914309977e-05
-1.293207429818757e-05
-1.481701295510471e-05
-1.796649176654624e-05
-2.264492839541526e-05
-2.914510724703025e-05
-3.777644256010929e-05
-4.884739773322851e-05
-6.26405982850166e-05
-7.937976986509489e-05
-9.918871553273488e-05
-1.156790283757884e-05
-1.241012900081864e-05
-1.428346506223075e-05
-1.741852950691107e-05
-2.208242162251015e-05
-2.857123804580709e-05
-3.719839094766596e-05
-4.827701320894343e-05
-6.209494870978909e-05
-7.888141835270162e-05
-9.876554191030367e-05
7.062300121984632e-05
7.427642532475101e-05
2.244744559319873e-05
2.519658756693405e-05
-1.665934886786228e-05
-1.462599718840464e-05
-4.768517680374425e-05
-4.61979778426468e-05
-7.071817021008929e-05
0.0001188779591144981
0.0001282734933257594
0.0001330102159158999
-7.179995676022459e-05
-9.012942258821848e-05
-8.93413447139505e-05
-0.0001036450715468135
-0.0001030638430830677
-0.0001131218416470326
-0.0001126799221923407
-0.0001191302696418257
-0.0001187739374896101
-0.0001220428053820657
-0.0001217271370773917
8.70161078984482e-05
0.0001230721998813176
9.294383256256111e-05
2.711575946819728e-06
4.928734628890692e-05
1.116923490432251e-05
5.338799297177977e-05
1.537811221922684e-05
-4.619631439288009e-06
-4.530573218774503e-05
-1.70374440212995e-06
-4.247387273709779e-05
-4.62647170774024e-05
-8.652572431053062e-05
-4.422999768927953e-05
-8.468340908094887e-05
-7.785986132342155e-05
-0.0001161694749981839
-7.646026211048614e-05
-0.0001150045014085418
-0.0001014513238067926
-0.0001372210966410336
-0.0001004995654526955
-0.00013650852751851
-0.0001187585120635905
-0.0001519644938045922
-0.0001181167305422798
-0.0001515491953830019
-0.0001311382703626614
-0.0001620792201536695
-0.0001307063413181194
-0.0001618558019643775
-0.0001396063640604973
-0.0001687562305399625
-0.0001393112296069528
-0.0001686528117210037
-0.0001448773930017173
-0.0001727997082810246
-0.0001446642538218166
-0.0001727658985280383
-0.0001474035964373448
-0.0001747040192237722
-0.0001472288166813736
-0.0001747020892550298
0.0001062580786360465
7.460005449045826e-05
0.0001174514482902178
1.662948711737582e-05
-7.555267041727473e-05
-0.0002101275364670644
-5.684745783783289e-05
-0.000141354397639706
-0.0002525855887263402
-0.0001816317352570295
-0.0002725351611088386
2.907874159127071e-05
-6.371953178767004e-05
-0.0002008767435808011
3.373655649248436e-05
-5.732772416143942e-05
-0.0001874976127796827
-4.892405288828049e-05
-0.0001350028896116652
-0.0002498348538204119
-4.516063788991459e-05
-0.0001316179801850322
-0.0002471308239452339
-0.0001027276650643884
-0.0001785104237573652
-0.0002723536204351814
-0.0001003377511191296
-0.0001769112697350467
-0.0002721038961237408
-0.0001391405147095587
-0.0002043216409712871
-0.0002805866863386885
-0.0001377512621587124
-0.0002036890229297666
-0.0002810778944265562
-0.0001634150295895636
-0.0002190740750522241
-0.0002813362126785188
-0.0001626711519481427
-0.0002189622823707824
-0.000282076079161891
-0.000179373758982096
-0.0002270523578400704
-0.0002784735349243743
-0.0001790309939367466
-0.0002272182934231008
-0.0002792781117442104
-0.0001897056856257155
-0.000231004796283205
-0.0002742303814910241
-0.0001896076994281172
-0.0002313145025684147
-0.0002750248030731265
-0.0001962594738718519
-0.0002326842388897873
-0.0002698947218889368
-0.0001963082982960585
-0.0002330645964743442
-0.0002706524947041862
-0.0002002769126214687
-0.0002331962127561562
-0.0002662030304922018
-0.0002004113546905132
-0.0002336086241605822
-0.0002669212251459421
-0.0002025615832634798
-0.0002332196639042242
-0.0002635667085103983
-0.0002027427844623908
-0.0002336449908032134
-0.000264254068656363
-0.0002035923350533807
-0.0002331431597375958
-0.0002622022496638833
-0.0002037940707126507
-0.0002335726804358629
-0.0002628730842985181
-0.0003837116810658189
-0.0003870897382676814
-0.0005347153631278744
-0.0006718377610378127
-0.0003761452606375293
-0.0004838044506901707
-0.0005820444380234754
-0.0004406548339575826
-0.0005124140381276201
-0.0005933509706208357
-0.0007881619347423684
-0.0002894418091298848
-0.0003918601091923609
-0.0006162574861259768
-0.0008199496698359843
-0.0003984432622306676
-0.0006180792067642464
-0.000832237575254618
-0.0003921545854301359
-0.0005475021537607467
-0.0006904741860000499
-0.0003948436931033434
-0.0005530347741863425
-0.0007009032003860317
-0.0003804314944434039
-0.0004929153696498537
-0.0005954261270209824
-0.0003826826450954832
-0.0004976083532199379
-0.0006027098706981409
-0.0003640054731237757
-0.0004476149333960248
-0.0005222808125866678
-0.0003660325506599893
-0.0004512885525130786
-0.0005275294104414845
-0.0003467892346818304
-0.0004103685733920533
-0.0004659260034244662
-0.0003485685096022736
-0.0004132487605920623
-0.0004698257611772314
-0.0003308221394326099
-0.000380347534328317
-0.000422764208309983
-0.000332359034404423
-0.0003826376163213505
-0.0004257375196984076
-0.0003170865070995071
-0.0003567392361106028
-0.0003901071340857847
-0.0003184126224510918
-0.0003585964533651666
-0.0003924370883931421
-0.0003059991574741057
-0.0003387945507844818
-0.0003659822598313779
-0.0003071566168970756
-0.0003403410304204048
-0.0003678689695518196
-0.0002976950678148269
-0.0003258879699727904
-0.0003489812221691157
-0.0002987281015029834
-0.0003272208370270679
-0.000350572320669208
-0.0002921852177052086
-0.0003175456177793577
-0.0003381419514967346
-0.000293136875320388
-0.0003187448923807851
-0.0003395519838000321
-0.0003134526830902631
-0.000332865799324223
-0.0002903533492494694
-0.0003145877199125985
-0.0003341898191158015
8.810170756658393e-05
0.0001083132407378608
0.000135083180814467
0.0001695404526298294
0.0002125183956068909
0.0002640514500098733
5.010068424730259e-05
5.186518991055555e-05
5.586093927877556e-05
6.268825196033509e-05
7.311289349360624e-05
8.808034129063624e-05
0.0001087278740382588
0.0001363680064729033
0.0001724007559771361
0.0002180778374288486
0.0002740149156817319
4.998910096685126e-05
5.172035763259122e-05
5.566914789273623e-05
6.245668296291456e-05
7.287498633422349e-05
8.790729071734634e-05
0.00010874936994344
0.000136807108216182
0.0001736277608969902
0.0002206754737175936
0.0002787858733093373
0.0001240488065999416
0.000151238434153119
0.0001830422090727554
0.0002179440928858249
4.89514777704375e-05
5.084997010554983e-05
5.495049100760797e-05
6.166974453354146e-05
7.154140927814493e-05
8.519157923493987e-05
0.0001032982497690362
0.0001265040578238085
0.0001552396181969685
0.0001893902967957984
0.0002277096993911149
4.904359301007482e-05
5.093202313398181e-05
5.502845037890363e-05
6.176844737912784e-05
7.171005044203983e-05
8.551310343816928e-05
0.0001039039962933069
0.0001275950233894647
0.0001571138983985313
0.0001924684289300297
0.0002325286198708678
0.0001479871115716947
0.0001678848873275434
4.611801448026843e-05
4.797535032589808e-05
5.184659414601921e-05
5.796951120962784e-05
6.6646952131998e-05
7.819630418406668e-05
9.28772947067294e-05
0.0001107706986852308
0.0001315756827121551
0.0001542825361839278
0.0001766693929196309
4.637526028595695e-05
4.823860390665769e-05
5.213423063561998e-05
5.831546355408178e-05
6.7105339343177e-05
7.884805842222108e-05
9.383902526038567e-05
0.0001122053709570622
0.0001337027359750523
0.0001573801863807414
0.0001810518598428521
0.0003230564908268916
0.0003394334629750878
0.0003471506010708768
0.0002523896761198227
0.0002668757456185855
0.0002740098095985916
0.0001827627411205958
0.0001946144482187828
0.0002005517230670472
4.173894688384882e-05
4.341295522171485e-05
4.212175513165545e-05
4.679437051175658e-05
4.381163329730086e-05
0.0003131089437795914
0.0003092098533657467
0.0003275201013417398
0.0001857743963892527
0.0001678535882602716
0.0002009822927840831
0.0001862172716674557
0.0002084515514171974
0.0001938108424812025
0.0003850994642640176
0.000443711701583298
0.0004094093689177923
0.0004773074019453276
0.0004209033365803504
0.0004947460007386697
0.0002782747586211443
0.0002807570104486917
0.0002991528806290874
0.0001208841256869988
3.179933339957377e-05
-0.0001332286831198343
-0.0001052947623279662
5.657102716244777e-05
1.628040995164246e-05
0.0002675672708485619
-0.0001001506528376727
0.0003013709269696274
0.0001439882771350379
-8.227477685376013e-05
0.0003168179103310575
0.0003150424564031031
-5.632637978405066e-05
0.0001395528821180544
4.946463162665871e-05
0.000138431962484191
0.0009233812125218966
0.0005480320943419397
0.0005499890325983217
0.0004901463512766031
0.0005754812377367944
0.0005938884919875544
0.0005513340706621565
0.001018614211541466
-0.0002333708880726598
-0.0005827155935591393
5.901574751831721e-05
6.800803966309215e-05
5.247911249533403e-05
5.966121464756922e-05
5.196257346529842e-05
4.723369987793108e-05
-0.0002918542132834748
-0.0005811277083375577
-0.00101484719104109
-0.0003500110399913894
-0.0005904085266432756
-0.001025907189493673
-0.0002234454096633459
-0.0005840097483608702
-0.001267120396531333
-0.0002007224946322513
-0.0004795619638974487
-0.001274439785357305
0.0008059829908919851
9.100377069862513e-05
-0.00105788063394334
0.0002067970906861968
-0.0004610213868482211
-0.001571260338257127
8.850876675231426e-06
0.0008284414422758138
0.0001955659411898111
-0.001042378360041588
-0.0004504429650806194
-0.001583018086227747
-0.001129576617093833
-0.001359365590661753
-0.002599081190878258
-0.001730835558160721
-0.001018286815506371
-0.001142162968505308
-0.002759490377015274
-0.001744996283277339
-0.001368855517575873
4.61579362248627e-05
4.671906496450623e-05
4.873154568122983e-05
5.316047428390995e-05
6.11614187526153e-05
7.420476079792494e-05
9.42376175501289e-05
0.0001238912018793008
0.0001667905690366358
0.0002287812836787952
0.000325694208933345
4.467822719842553e-05
4.498248708869324e-05
4.653158414785096e-05
5.031835862190439e-05
5.751511257355273e-05
6.96148799513582e-05
8.862501770917138e-05
0.0001173536694132347
0.0001599423274684196
0.0002233852086263468
0.0003209923296071292
4.380695111283865e-05
4.39698784601555e-05
4.526154091708058e-05
4.868673192470213e-05
5.542253651679089e-05
6.69692505412158e-05
8.536387636084796e-05
0.0001135123935113373
0.0001557954873401161
0.0002194538826401012
0.0003165832547379744
4.975308680340746e-05
5.27414067682127e-05
5.846472074705737e-05
6.799400208519882e-05
8.269377264363588e-05
0.0001043381782121033
0.0001352482884311261
0.0001784130931343408
0.0002372512279302415
0.0003116012542165396
4.76544370224631e-05
4.859333633961613e-05
5.126824480552648e-05
5.658306660288432e-05
6.564688340579786e-05
7.987989777374319e-05
0.0001011581493370556
0.0001320085442274246
0.0001758722708206105
0.0002374021802991074
0.0003223431980550172
4.704762782513797e-05
4.788601885890383e-05
5.038434655731498e-05
5.546433352992462e-05
6.42523075547627e-05
7.819471348505233e-05
9.922031213543298e-05
0.0001299710024359939
0.0001741355405322366
0.0002368556329278006
0.00032452064551122
6.190379013382749e-05
7.226148394382279e-05
8.756307816099264e-05
0.0001092556868698809
0.0001391232622466497
0.0001792757206076704
0.0002319681817743524
0.0002991810340891974
4.959549424449372e-05
5.103604403151985e-05
5.455250607074603e-05
6.091385307535788e-05
7.108766881566894e-05
8.630085630704632e-05
0.0001081183971053706
0.0001385282398407387
0.0001800075119894694
0.0002355033097774334
0.0003082331988940447
4.924728996361725e-05
5.06241255492288e-05
5.403562686323533e-05
6.027152483289322e-05
7.032370583605868e-05
8.545513446006438e-05
0.0001072922084673143
0.0001379336925253813
0.0001800563224172409
0.0002369325856913354
0.0003120927929078038
0.0004765401945512989
0.0004651358606092795
0.000437274062872395
0.0004488172686817369
0.0003873451574292371
0.0004030711606583776
0.0004095709451416422
0.0004591035878632059
0.0004514299062908089
0.0005950106555499397
0.000582397537641603
0.0005734004649544461
0.0007051102910747966
0.001053280203835333
0.001075249970641801
0.0008849288293797428
0.0009045461558593146
0.0005078263096013473
0.0005265084506982264
0.000583217176204172
0.0005362174891867654
0.000757335528240763
0.001079836912786554
0.0009442853717301866
0.001147657307295913
0.002506271189158308
0.001175353539239157
0.001622971985250622
0.002868713398179459
0.0009970683173739206
0.001024102944594306
0.001020955911826661
0.001010972142588082
0.001057603799057202
0.001057752976351012
0.000653553824493676
0.0009345533398760274
0.0006858034721617665
0.001180792292244546
0.001698014973897581
0.00292778043736284
0.001045335277945256
0.001155009245879351
0.001164788732545298
0.001022326851677191
0.002595200241352697
0.002475309637675054
0.0008353524709731705
0.003018614922128257
0.00266897595248847
-0.002030298828205923
0.0009953243516777328
0.0002569345491935257
-0.0009965710871569454
0.003088559404318968
0.003273602771528924
-0.001907193507813619
0.001021916519994311
0.0003904746624667098
-0.000960219896879877
-0.003647370187819907
-0.002762703871453158
-0.003690559140539525
-0.00293875709664451
0.001000078157324453
0.0008871654633804332
0.0007946236629660851
0.0005719830055666544
0.0004014135143496198
0.0006272740476669937
0.000457263344348249
0.000300377080813867
0.0005310964678339611
0.0001223876854923037
0.000107398124449919
0.0003461427236259312
0.0002701144586482198
0.0002897771641841493
0.0005654790894726662
0.0001127152369033791
0.0001212138419559948
0.0003561815443025418
0.0003741537321271408
0.0002982698875183319
0.0003079436292562951
0.000908864705426155
0.0006446542040771502
0.000665634367993092
0.001046723097487523
0.000942129845418342
0.0004699021717759458
0.0004904987599911962
-0.001225158900402225
-0.00141895739573108
-0.0008828599064120394
-0.001011518967562983
0.0006705514107886107
0.0002844611212187916
0.0002558683794752265
-9.829286913414345e-05
5.69725367003869e-05
-0.0007357543338391999
-0.0002646910000933993
-0.0008754640541929798
-0.001061461728527221
-0.002162572466799546
-0.001861223394669505
-0.00111042574844326
0.0001855854966030888
-4.074977138119587e-05
-0.000344411467742195
-0.0001790791221528897
-0.0004671117527669809
-0.0008873579974727261
-0.0003342054672742327
-0.0008913796834858265
-0.001498638031106667
-0.001764482499376764
-0.001039171875055764
-0.001101933148647617
-0.0007746454745016171
-0.0004794891999223704
-0.0008821764285096782
-0.0004798206511773678
-0.0008925806959558402
-0.0005849821728961165
-0.0008057460300700309
-0.001485848737724599
-0.001236319257274218
-0.001438742828134517
-0.0009007683721928805
-0.001020920315924866
-0.001040001091118327
-0.0009486604583715719
-0.0004861600635334024
-0.000902315879342533
-0.000896131071255146
-0.0005837519617293574
-0.0005846361261827993
-0.0008385500454597928
-0.000823633976709484
-0.001283639969167821
-0.001496498559024577
-0.001512823554568107
-0.001053086397384438
-0.00104490001822547
-0.0009676444989393257
-0.0009590729499175188
0.0007103603378348769
0.0003086968013644392
0.0002931961127570294
0.0003848771509268716
0.0003654265433164336
-7.978625219080997e-05
-3.407932063284623e-05
-0.0007217450262604603
0.0001753091653365632
-0.0006845955149704267
-0.000249343430226349
-0.0008750169091309635
-0.0002111519566640014
-0.0008723268113959095
-0.00220061441578508
-0.001045837868258538
-0.002290314411697016
-0.001965205852202427
-0.001892121366407228
-0.001116764942007279
-0.001130362272039483
-7.572611773832282e-05
1.201133950898233e-06
0.0002549493772315216
-0.0003354535702583688
-0.0001648233814238157
-0.000322132885884676
-0.0001291657106435559
-0.000893030816885693
-0.0003228318849674058
-0.0008932706221402225
-0.0004519835571832317
-0.0009043630727204886
-0.0002943546094500139
-0.0008964763716286138
-0.001859895073219891
-0.001520185079446686
-0.001792835421839973
-0.00104848402560911
-0.001109670189294524
-0.001068874586292758
-0.00112688500663863
1.931455601949217e-05
0.0002657761367518123
0.0002831244815824097
-0.0003195684660518432
-0.0003134536819104768
-0.0001206018217468894
-0.0001072999176280108
0.000862844522158504
0.0004067556925525409
0.0004403821623364796
0.0003783986100029453
0.0003987149176855669
-2.316854577373617e-05
-6.403998237724269e-06
-0.0006752263767312446
0.0002267571122788307
-0.0006606981523922139
-0.0002019770530132791
-0.0008714377629347803
-0.0001879289451818051
-0.0008701923662069774
-0.002311115895195255
-0.001036967454790359
-0.002343349386344113
-0.002008542949260648
-0.001982197841614402
-0.001133291547124984
-0.001137922452281515
-0.0004498927111972055
-0.0009126110377904075
-0.0009073452350523301
-0.000287511188351121
-0.000897053141808557
-0.0002770310738259087
-0.0008981332821890017
-0.001601171467006332
-0.001899644397914802
-0.00187548114242723
-0.001081682166520613
-0.001073724804596557
-0.00113072984841402
-0.001136820416821468
-0.001305788087806407
-0.001547514823117055
-0.002544757174454162
-0.002109750335617086
-0.001644174718798991
-0.001980943618763218
-0.001625532582481919
-0.001320260939182224
-0.001570544480744801
-0.002729008938189348
-0.002244482060690204
-0.002149591983267368
-0.002101614658568233
-0.001669821021275728
-0.002016661492385431
-0.002806805565474777
-0.002301044928024041
-0.002266662085423478
-0.00176684777888748
-0.00215217282308789
-0.002121445480426319
-0.001380390935408373
-0.001638231582735485
-0.001657699964425973
0.001052735295968472
0.0008639673117989274
0.001084836033986191
0.001063936777462654
0.0008575546812037399
0.0008239835787761478
0.001060298748009981
0.001003806823982264
0.001019692727071026
0.0008525323214686515
0.000875581025802686
0.0008324735481191024
0.0008367931363398013
0.00108653787787201
0.001087167592114444
0.0008203783929260784
0.0008127947318653904
0.001025815176747458
0.001083266887555119
0.001032476012706098
0.0008496513218992126
0.0008494870732562376
0.0008304071928521641
0.0008231987265123371
0.001664753301293443
0.00212936423487869
0.002786075596306939
0.002296480727657807
0.00119171344286443
0.001174997070586071
0.001547416414512086
0.001588674558734103
0.001691424028154346
0.001746853104798807
0.00230214594815676
0.002183057763865331
0.003176482600474626
0.002902424939786767
0.002511883801419024
0.002362648909359691
0.001038137377301357
0.001471434595995458
0.001261517440038029
0.001594213209361103
0.001994896181227604
0.001340773570989561
0.001565383562074877
0.001725947838870683
0.002132848681526832
0.001628061207294613
0.001158739130923567
0.001046151410728506
0.00107475605206146
0.001494248511278058
0.001542200016645211
0.001344384623359368
0.00128700332348439
0.001684873252127541
0.002169836351789057
0.001438919669589921
0.001723213316877151
0.002048581900104761
0.001370777116005866
0.001612914101639889
0.002613733292440304
0.001991223773742369
0.001804051416435335
0.002345905206491611
0.001810276895961251
0.002197632292535045
0.001682620022911919
0.000877865159740686
0.001184273983595508
0.0009590277821399137
0.00124922603776683
0.001422819920243662
0.0009687803841216754
0.0009141576498107435
0.00149604933508889
0.001465313832097534
0.001039761473511785
0.0009207880823581137
0.0009147948394515942
0.001267068796144206
0.00100589646439493
0.001208924612026318
0.0009753236470433667
0.001136279992922035
0.001345156384745419
0.001570338447332982
0.001052316430682818
0.001278252775601109
0.001467124916698499
0.0009881701870184023
0.001144370996885612
0.001067289447048804
0.0009592900680456325
0.001729915260710179
0.001564859861131663
0.001633226582507328
0.001515480385181628
0.00090503825163065
0.0006751946652290738
0.0006070434018747472
0.0008903993444786791
0.0008909216752408214
0.0007558021521492187
0.0005565572619000722
0.0003766366814673721
0.001004924791094075
0.0007196370075378015
0.0006212937570734187
0.000732509390237226
0.0006545954540138013
0.0009696846028960154
0.0009094353651187264
0.001194815021216698
0.001197908333255518
0.001596894701301989
0.001608262366528847
0.001758148856469102
0.002327998478794437
0.001774036472821555
0.00236586162417426
0.003239513651454722
0.003334997047689744
0.002544821322583969
0.002593549786208598
0.001079806655601896
0.001187284174705971
0.001108617407104811
0.001552323474548963
0.001356726497184525
0.001566906348938078
0.001374121126440757
0.002196662474365995
0.001453892043664847
0.001748296308737022
0.001716997690730583
0.002236384195461289
0.001475371581088098
0.001785930522012683
0.00203500860548128
0.003017597707147038
0.002101897487875493
0.00237912615635578
0.001839523757394764
0.002428693407053651
0.001883661726840358
0.0009161858584730553
0.0009187202445410949
0.001075597939546057
0.00127925615964708
0.001020624316545645
0.001037100836927843
0.001294250865134238
0.001183223016503047
0.001359940034804756
0.001593954997033251
0.00106690561256259
0.001086047252237081
0.001380377090254502
0.001629452585873183
0.001092609673073591
0.001195841405878769
0.001131351432176907
0.001768568802524716
0.001827641676304246
0.001660321190629804
0.001701289962821255
0.0007331366546975948
0.0006739080776469089
0.0007395508001944789
0.0006907230829194473
0.001048150700491449
0.0009797685961906897
0.0009952546754907776
0.00116471639293983
0.001526935661602198
0.002923468604929816
0.00309918576446093
0.003020632932760906
0.002039782795868098
-0.001924985570796068
0.001373428374731315
0.001710176050850508
0.002607097480358832
0.001415388044995843
0.001404254744712135
0.001205502921438164
0.0001205068633925667
-0.002222866809734882
-0.002505905570577725
0.0007557992184032176
-0.0004126158728703832
0.0004212728322893172
0.001457594684769951
0.001109396927359674
0.0002135381168517292
-0.0006444011450732212
0.0008924735260052849
-0.000148350362865952
-0.001006601249536482
-0.002259763368508342
-0.002481677757699012
-0.0006365085012553744
0.003388920574377335
0.003060901295387443
0.003308077751130616
0.003826105095377581
0.003252622699724958
0.00230827934657365
0.003835300498866571
0.003011546510564172
-0.001524857184835702
-0.001825852888993785
0.001631291207631295
0.002318741846926619
0.002719740333576194
0.00200415175965731
0.001796245459367196
0.002785368608455399
0.001519888244059458
0.003227870653647285
0.001778697795399519
0.001610883171201614
0.001312091772789961
0.0002084918160302472
0.00315526010523092
0.002150450435015759
0.001578509394892777
0.0004366099232724587
-0.0025885594105509
-0.00217787906794477
-0.002533130595939359
0.0009467306009487499
-0.0003424458897358653
0.001453954445140059
-0.000156472237325885
0.0008822820213866635
0.000467695537000046
0.0005818778369198253
0.001712727286684467
0.00153227924841663
0.001195511614908113
0.001408447406733086
-0.0006224608606073708
0.0003645723699538256
-0.0005650496748613997
0.0009784998093078673
-8.391773087728423e-05
0.001193086196940008
8.300402526388596e-05
-0.00229934373278051
-0.0009678395185082421
-0.002392279924131712
-0.002594557181818823
-0.002516742556666552
-0.0005886735842488586
-0.0004613925039671951
0.003465277334169347
0.003581709053625535
0.003950850882975511
0.004144616308589933
0.003977114339645393
0.003188931061347231
0.004198784700690824
0.003468451589898639
-0.001897721717780532
-0.001435832126548224
0.002492474522160774
0.002769008414852831
0.002053121318406862
0.003195502099114942
0.002128198172041809
0.003334526043749609
0.001840962627532744
0.003500146351586655
0.001937425211883952
0.002286001278918684
0.001643092677309423
0.0004935310286354482
0.003458292722359453
0.002500195601579673
0.001743498507473934
0.0005830807981176256
-0.001988236685090564
-0.002615552457214422
-0.002599583010119308
0.001582725667859818
-0.0001093043232552752
0.001787938840629733
-3.46927935209203e-05
0.001062640842758406
0.0006091711267804334
0.0006511970509537033
0.001755244113658736
0.001820421929078637
0.00145960358347786
0.001538756760774833
-0.0005506790232732457
0.0004304486968684871
-0.0005283033772006633
0.001245010548182637
0.0001246061855265597
0.001325608557878153
0.0001899091666410754
-0.002413753785860487
-0.0009482600652613593
-0.002446996607118851
-0.00263748331065993
-0.002611601454887554
-0.0004290475188116658
-0.0003779785453478007
-0.003448260557552834
-0.003531026883536459
-0.003325154504110212
-0.00270313062422243
-0.00318271030498332
-0.003406856539505448
-0.003453305428583979
-0.003571834001202414
-0.003572324530449976
-0.00339872730133892
-0.002905285533693243
-0.003427751395218508
-0.003255273173437924
-0.002937492644859177
-0.002867724880982607
-0.003657999893641018
-0.003673666540718228
-0.00361184007812528
-0.002990731643118538
-0.00353041601091089
-0.003468004379839298
-1.210556022071445e-06
2.882556249794581e-05
0.0001304925798220598
-6.724858474164178e-05
1.844047900232563e-05
3.54126024847423e-05
3.906039594545795e-05
0.0001465487970650872
0.0001605562564447017
5.039801900315228e-05
-5.136709667146553e-05
4.779365333449552e-05
5.062104331015753e-05
0.000167557922485718
0.0001608442826994804
5.626262635663827e-05