/*--------------------------------*- C++ -*----------------------------------*\
  =========                 |
  \\      /  F ield         | OpenFOAM: The Open Source CFD Toolbox
   \\    /   O peration     | Website:  https://openfoam.org
    \\  /    A nd           | Version:  7
     \\/     M anipulation  |
\*---------------------------------------------------------------------------*/
FoamFile
{
    version     2.0;
    format      ascii;
    class       volScalarField;
    location    "0";
    object      Phi;
}
// * * * * * * * * * * * * * * * * * * * * * * * * * * * * * * * * * * * * * //

dimensions      [0 2 -1 0 0 0 0];

internalField   nonuniform List<scalar> 
12689
(
49.34050624131203
48.00722175692908
46.67393839571003
45.3406520011967
44.00735657444908
50.67381204147458
49.3405258097173
48.00724397215859
46.6739637624006
45.34068104068799
44.00738979032852
57.3402115742919
56.00688308522702
54.67355926300203
53.34023972543024
52.00692382900928
50.6736105794914
49.34029850460182
48.00698548351733
46.67366852919157
45.34034352462109
44.00700492530123
57.34022279949701
56.0068945636353
54.67357125254758
53.34025249318318
52.00693765483435
50.67362575833672
49.34031534646088
48.00700430960824
46.6736896622017
45.34036726996012
44.00703153922291
57.34008996109924
56.006758427828
54.67342846881922
53.34009961022708
52.00677108484666
50.67344176233821
49.34011005357599
48.0067737887484
46.6734300716799
45.34007511858876
44.00670409957243
57.34010012882355
56.00676879631698
54.67343924096139
53.34011099278657
52.00678328940511
50.67345500485316
49.34012455177263
48.00678975627578
46.67344770761734
45.34009459053039
44.00672551826314
57.33997756578039
56.00664344568358
54.67330829042013
53.33997158647616
52.00663252174454
50.67328993537647
49.33994225178315
48.00658740121784
46.6732227323747
45.33984492741923
44.00644993737371
57.33998678005774
56.00665281733338
54.67331797721601
53.33998174664783
52.00664331330105
50.67330151423375
49.33995476812007
48.00660099335303
46.67323751733123
45.33986098728846
44.00646730070458
57.33987612497048
56.00653985337758
54.67320039060692
53.33985721934437
52.00650953530872
50.67315621455509
49.3397957726181
48.00642631911484
46.67304551399788
45.33965053535317
44.0062380735327
57.33988449859888
56.00654834920513
54.67320913016231
53.33986632252793
52.00651911883973
50.6731663894808
49.33980664049459
48.00643796643174
46.67305800441295
45.33966389937797
44.00625229553382
57.33978703042427
56.00644900991748
54.67310605620929
53.33975767027181
52.00640308673757
50.67304125554045
49.33967082090636
48.00629010149328
46.67289707741969
45.33948939238546
44.00606438191105
57.33979468139971
56.00645675518674
54.67311398877822
53.33976588034969
52.0064116597808
50.67305026961128
49.33968034310268
48.0063001832159
46.67290774829093
45.33950065274505
44.00607619403041
57.33971137007169
56.00637196597286
54.67302625793183
53.33967377624407
52.00631380864461
50.67294539301755
49.33956731117997
48.0061780871909
46.67277599497098
45.3393590814909
44.00592521317483
57.33971841896272
56.006379087567
54.67303352332462
53.3396812531571
52.00632155934287
50.67295347175698
49.33957576104637
48.0061869362222
46.67278525151779
45.33936872887795
44.00593520389594
57.33964997103963
56.00630951174209
54.67296170792348
53.33960612185195
52.0062420960334
50.67286875399274
49.33948500451263
48.00608955223762
46.67268091839839
45.33925747617797
44.0058175057247
57.33965653921907
56.00631613647653
54.67296844402178
53.33961302052229
52.00624920281741
50.67287610639662
49.3394926292662
48.00609746215016
46.67268910884023
45.33926592130629
44.00582615469511
57.33960344036232
56.00626222124621
54.67291291112092
53.33955510083766
52.00618818052651
50.67281134589241
49.33942360940357
48.00602381875214
46.67261068546212
45.33918282682956
44.00573882433595
57.33960964897062
56.00626847496741
54.67291925328079
53.33956157111641
52.00619481296543
50.67281816671571
49.33943063463067
48.00603105161257
46.67261811367831
45.33919041990254
44.00574653105532
57.33957220032445
56.0062304901776
54.67288020794086
53.33952096557481
52.00615218784432
50.67277312200835
49.33938285319348
48.00598032743047
46.67256438461097
45.33913380366226
44.00568736191686
57.33957816982058
56.00623649748088
54.6728862890717
53.33952715293348
52.00615850829119
50.67277959483396
49.33938948797903
48.00598712183381
46.67257132215878
45.33914085168496
44.00569446982467
57.33955651638364
56.00621456546596
54.67286380696798
53.3395038639927
52.00613417944037
50.67275402730628
49.33936253000842
48.00595868351267
46.67254139219668
45.33910951531315
44.00566192647316
57.3395623665328
56.00622044986659
54.67286975809314
53.33950991072357
52.00614034519035
50.67276032807082
49.33936897235238
48.00596526254026
46.67254808959005
45.33911629757416
44.00566874355339
42.67364546118431
42.67367510046207
42.67331101712114
42.67333440067527
42.67303296606638
42.67305158396324
42.67280437214148
42.67281937498667
42.67263141991821
42.67397047551339
42.67404370834496
42.67408152320072
42.67261914140636
42.67247215403449
42.67248240395548
42.6723592736996
42.67236804725943
42.67227730106706
42.67228504756315
42.67222390982443
42.67223100798535
42.6721975866618
42.672204371212
40.05731924505434
41.35741135960039
40.05736640961216
40.05676111481677
41.35692327685457
40.05682933208674
41.35695588566863
40.05686458692546
41.35655645830768
40.05643413958943
41.35658166169701
40.0564608372272
41.35625659850062
40.05611662334171
41.35627630241292
40.05613712449333
41.35601357967865
40.05586299709964
41.35602920034788
40.05587899248851
41.35581900546769
40.05566235627148
41.35583160397756
40.05567507495032
41.35566611457283
40.0555062357757
41.35567649625491
40.05551658598151
41.35554961774732
40.05538819912792
41.35555840559663
40.05539686668676
41.35546552277181
40.055303493516
41.35547321224118
40.05531101216593
41.35541097880105
40.05524878007471
41.35541797956336
40.05525558306898
41.35538415430247
40.05522193803506
41.35539082326631
40.05522839760796
41.35728653916965
40.05722836315255
41.35736877298827
38.7571130804024
37.45692297118128
36.15664304379589
38.75661236766784
37.45640228504806
36.15612061516573
37.45599647548354
36.15572212483077
38.75721145701455
37.45702654933232
36.15674763248447
38.75726234778982
37.45707847653813
36.15679277172982
38.75668440894284
37.45647617965091
36.1561936072016
38.75672160633552
37.45651397412297
36.15623002564858
38.75626811531012
37.4560504363644
36.15577447426922
38.75629576217132
37.45607820350717
36.15580132085721
38.75593944059339
37.45572001847174
36.15545457230954
38.75596031433199
37.45574068248449
36.15547431414058
38.75568068331896
37.4554635419434
36.15520957875818
38.7556967222061
37.45547919731935
36.15522434224446
38.75547841450341
37.45526536174875
36.15502231943299
38.7554909949444
37.45527748600871
36.155033620906
38.75532254313666
37.45511405620523
36.15488058527679
38.75533265890862
37.4551236973233
36.15488948325509
38.75520559114413
37.45500135562534
36.15477572295311
38.75521397615724
37.45500927225725
36.15478296924773
38.75512214640315
37.45492138404583
36.15470168662392
38.75512936027161
37.45492814380422
36.15470783381168
38.75506846403425
37.45487013201901
36.15465440329108
38.75507495307292
37.45487618016381
36.15465987825034
38.75504219045539
37.45484510428436
36.15463136076573
38.75504833300793
37.45485081350807
36.15463651664989
34.85625306117078
34.85575905322125
33.55531640615676
32.25479575432437
34.85538760359456
33.55499308455597
32.25454316535021
33.55475166193913
32.25435655998589
33.55575507884446
32.25514396754048
34.85440218125125
34.85635444219779
33.55584536725051
32.25521561735783
34.85640651467234
33.55589336914128
32.25525491042558
34.85582806741451
33.55537683919529
32.25484212203541
34.85586367925534
33.55540858817896
32.25486748843504
34.8554360770325
33.55503488937129
32.25457529051093
34.85546113742645
33.55505665830988
32.25459226428714
34.85514136035252
33.55478146078239
32.25437943858659
34.8551594018773
33.55479688022364
32.2543913267688
34.85491842095755
33.55459179020144
32.25423385625748
34.85493172900938
33.55460304282168
32.25424248387358
34.8547496817697
33.5544493960178
32.25412513321443
34.85475976364058
33.55445785560871
32.25413159984456
34.85462294366054
33.55434310995718
32.25404430251846
34.8546308157656
33.55434967792155
32.25404931612869
34.85452972824348
33.55426530371623
32.25398530357111
34.85453609678661
33.55427059511903
32.25398934196856
34.85446420167883
33.55421079625365
32.25394405653624
34.85446957698927
33.55421524945995
32.2539474572912
34.85442247850296
33.55417617005249
32.25391788939571
34.8544272494298
33.55418011535458
32.2539209049287
33.55415934802136
32.25390518657705
34.85440666617106
33.55416305357009
32.25390802059449
50.67435802694989
49.34115710743077
48.00798215900131
46.67483380277807
45.34171145617025
44.00861227773756
57.34074199729437
56.00742989829161
54.67413945115632
53.34087147647094
52.00762716297828
50.67440799914866
49.34121564780305
48.00805172484187
46.67491741878776
45.34181284980817
44.00873601119576
57.34075814301742
56.00744659978437
54.67415729281746
53.3408911018682
52.00764930929707
50.67443353769795
49.34124563287288
48.00808745315993
46.67496050103544
45.34186529237979
44.00880029472127
48.00769937460485
46.67449623117241
45.34130578973332
44.00812295669989
57.34060858821993
56.00729187661658
54.67399198550507
53.34070928625545
52.00744426483637
50.67419741963129
49.34096909423784
48.00775921284637
46.67456687008831
45.34138970711575
44.00822298426267
57.34062344970246
56.00730720569996
54.6740082700884
53.34072705572248
52.00746411295942
50.67422002986432
49.34099526770175
48.00778989851262
46.67460319498162
45.3414330008039
44.00827478446342
45.34093220785471
44.00768183401245
57.34047359709007
56.00715255822896
54.67384384222458
53.34054747485082
52.00726341264548
50.67399143094407
49.34073095096551
48.00748078343127
46.67423875859407
45.34100120584619
44.00776224449722
57.34048719084236
56.00716653888975
54.67385861030553
53.34056345829639
52.0072810810012
50.67401130971003
49.34075363547448
48.0075069506838
46.67426917390083
45.34103671842124
44.00780376167673
42.67552953024479
42.67568107655649
42.67576017796364
42.67493900895364
42.67505825034891
42.67512026264775
42.67441940606396
42.67451285926621
42.67456128241231
57.34034029038077
56.00701530687056
57.3403526638167
54.67369857798506
56.00702799553715
40.05866701333363
41.35862006697656
40.05875412337431
41.35779802113785
40.05780189484419
41.35790568367224
40.05792423139652
41.35796168613928
40.05798812092425
41.3591138856205
40.059346562161
41.35929895457699
40.05956894608154
41.35939591149274
40.05968609081227
41.358404944983
40.05850155263708
41.35854624012676
38.75774236355961
37.4575898596861
36.15733726786734
36.15749769010959
37.45781644369944
36.48166187882102
38.75853406682669
35.83300329574244
38.75872509854259
37.13334986521746
35.83311360522534
38.75882815759927
37.7840831899696
35.83323507910477
38.75787911237796
37.45774128476896
38.75795053392206
36.64975686821005
39.08498253012794
37.78517342165597
36.6478830338998
39.08516186627492
37.78538438830036
36.6481633400117
36.65018498463903
35.18279590705537
33.88222751333751
52.00708880864248
50.67379464821147
53.34040418960295
52.00710446035534
53.34038988255298
54.6737119055891
35.1818840408968
33.88145743636696
31.93041185982644
35.18206606924601
33.88154773391876
31.93043738034195
35.18290322451013
33.88233047930454
31.76837340943637
35.18303657817395
34.04582407914913
31.768392338968
35.35029705274403
34.04953157252699
32.74846212688202
35.34772563612488
34.04596763012503
31.7693036649261
35.34673929632567
35.35039330876988
34.05009932428285
32.74902833086841
34.04619062702599
31.76933533406488
31.27997812553364
31.4431032029671
31.4465003163109
31.44394717438522
31.27979150416196
31.27999708240185
31.44696583001767
31.44397605390479
31.44312199591412
57.34105768123365
56.00775789489419
54.67449282804298
53.34126487930156
52.00807778181156
50.67493676757071
49.34184878615952
48.00882276763571
46.67586990068123
45.34300388239269
44.01024132297569
57.34109643612015
56.00779826783641
54.67453655258176
53.34131393325278
52.00813454489373
50.67500422844442
49.34193082884779
48.00892458479578
46.67599861649451
45.3431695394805
44.01045840006211
57.34111614361127
56.00781880921092
54.67455882272401
53.34133895638006
52.00816355890689
50.67503879713581
49.34197299986624
48.00897712249838
46.67606535818936
45.34325594475246
44.0105723133811
56.00764898919062
54.67437506846303
53.34113308576039
52.00792578199514
50.67475690646761
49.34163127297211
48.00855478518257
46.67553437503766
45.34257774196094
44.00969261381318
57.34098966753687
56.00768704147425
54.67441609966914
53.3411788289302
52.00797828997447
50.67481870835926
49.34170558217028
48.00864578539821
46.67564762606163
45.34272078375655
44.00987598791217
57.34100827932566
56.00770639634683
54.67443699018894
53.34120215180114
52.00800511184502
50.67485035049082
49.34174373489251
48.00869266877122
46.67570622194092
45.34279517475805
44.00997183079996
53.34098743444536
52.0077590910376
50.67456150566854
49.34139757847331
48.00827057522973
46.67518383518172
45.34214020812341
44.00914098346259
57.3408702682972
56.00756292580903
54.67428225481588
53.34102962178345
52.00780708466307
50.67461738821972
49.34146392849365
48.00835064959139
46.67528180750634
45.34226148337585
44.00929262612948
57.34088767798666
56.0075809843237
54.67430164945798
53.34105112015335
52.00783158352687
50.67464597388855
49.3414979544453
48.00839183894595
46.67533239033659
45.3423243800454
44.00937167939685
42.67760539259604
42.67789278289376
42.67688433088993
42.67712415487802
42.67618381698309
42.67637519449872
42.67647539894137
42.67804513407773
42.67724915991973
41.68660559523489
41.68613964447667
41.68575244387255
41.03731147733162
39.57644954237539
39.57698399725512
39.73711163485598
39.73734131144695
41.35992044587014
41.36016345412113
40.38511632481621
41.36029058801805
39.73627470202313
39.57707054504527
39.73764577547878
39.25178832293735
35.68113154402888
39.252370489067
37.95351783925173
35.68260622086932
39.25018612644166
36.97504486262924
36.65014521224555
39.25031691741515
36.97520062330445
36.65030915356864
39.0855935922181
36.97467626960003
39.08580578337115
39.25246486751701
37.95422723497258
35.68285385202034
39.25070274518804
36.97565225089379
36.65078616662964
36.97508297786013
35.35650652313753
34.05759763613418
35.35034857224601
35.3581034578186
34.0582094311013
31.78311928372331
35.35101317745021
34.05027368317671
32.74920796309004
35.35837275454874
34.06009007208746
31.78431006324415
35.35112243781945
34.05092884457401
32.74987347689191
31.4570240937611
31.44711787024574
31.45818882286022
31.44767390994658
36.65010467471335
35.67528564764521
35.67488776296929
36.6483046110686
35.67325685852348
36.64855933088139
35.67353602349071
35.67279413222822
36.64811324009693
35.67161381314931
35.67178257565911
35.67304275751422
36.48445705278722
36.48457789541345
36.64824194065503
35.67182258134755
35.67187914197573
35.67310014353455
35.67318757508544
36.48466114213239
36.48470486314679
35.67537812927332
36.64861610327986
36.64870363076398
36.65030780285285
35.67551978716027
35.67360051094786
35.67369894930023
31.7682567789108
31.76886219857979
32.74389355807283
32.74470639180986
35.34970976438309
35.34807837904914
34.37448874116829
34.37274456446933
34.04933950608849
33.07361556573923
34.04757550431161
33.07186907445412
32.74827216657999
31.77191013836809
31.77042409752625
32.74656272799139
35.34761807076374
35.34643000804034
34.37105883023928
34.37226352455586
34.04589101566243
33.07025900144149
34.04709273500826
33.07140178444399
31.76910937161479
31.77003701935527
32.7450042690357
32.74610863192219
33.23196100787861
34.04562599095352
33.07001340708884
34.04578722560392
33.0701613352268
33.88241066827302
33.06931639426758
31.76903150119542
31.76829087656212
31.76891254434121
32.74394183279858
32.74476757667411
32.74491020874498
32.74410582505217
34.04588051304216
33.07024841265537
33.0701956983823
33.88246614734171
33.88249438331019
33.06937988360211
33.06934131411155
31.76842117914325
31.76905903394025
31.76910109339021
32.74499395155102
32.74494327728448
32.7441637568656
32.74412812658109
35.34988365746656
35.3481995812983
34.37467764202812
34.37512918934956
35.34848608353916
34.3728719637885
34.3731739615819
33.0738086954231
34.04999153367078
33.07427371317838
34.04770356105907
33.07199354632657
34.04800751539726
33.07229014337478
31.77207748581125
32.74892030108494
31.77248301830126
31.77077562274382
31.77052767424119
32.74668383733178
32.74697278183424
35.34651906987254
35.34669773831311
35.34797977466739
34.37113645641379
34.37237568176861
34.3713183991968
34.37264091359362
33.07033146115028
34.04720509711125
33.07150995723388
34.04614875280711
33.07050132695954
34.04747111345781
33.07176691515618
31.77033829721989
31.76916709159048
31.77012600643693
32.74507389156955
32.74621355779981
32.74523760016386
32.74646308904143
35.34679754463465
35.34803849839908
35.34812795048615
34.37136063062243
34.37142335444851
34.37270236820726
34.37279621361061
35.35054086417102
34.37523484050259
34.37539717284879
35.34855238997763
35.34865365005744
34.37324410073581
34.37335143792748
33.07438319539708
34.05026506944877
33.07455191357877
34.0480781974813
33.07235935575353
34.04818645574855
33.07246557292139
31.77257902028387
32.74919492711145
31.77272735164189
31.77092302573842
31.77083371100374
32.74704028058513
32.74714392281214
34.04625408116461
33.07060086633592
33.07054066715902
34.04753282976935
33.07182672394431
34.04762720250377
33.07191840070578
31.76938378660547
31.77046402685874
31.7703878855309
32.74533354688386
32.74527551586471
32.74652122515978
32.74661038303903
31.44299735358222
31.44354508715611
31.44634523229996
31.44497335212084
31.44377008550175
31.44461802714631
31.44369908699272
31.44302788597359
31.44359086275174
31.44687663966358
31.4452965603818
31.44506852214856
31.44489435894884
31.44382267006558
31.44469959772643
31.44710371391353
31.44543226762057
31.44535002708058
31.4440202410502
31.44500981188173
31.44493988483668
31.44314685994046
31.44372413837086
31.44376239919597
39.57682904002927
40.55072458948331
39.57739895928788
39.57699938190413
40.55086200516138
40.5512515876669
39.57661013547133
39.57545141566396
39.57576689646368
40.38771445706814
40.38818410186848
40.38754216898221
40.55093298051433
39.57749148052904
39.57763290847469
40.55131988416333
40.55143100296797
39.57584026170437
39.57720295197148
39.5759383891258
40.38783680424653
40.38789951298777
40.55099749039075
40.55110341244698
37.95385677360955
36.98025098103313
35.68219067331231
36.65573511460035
39.25282364072652
39.25238675466522
38.27865924060302
38.27923000885207
37.95411913872653
37.95474366966731
36.98141226293095
36.98059239268466
35.68384797466216
35.68267304232859
36.65700558483585
36.65610776596424
39.25057450177327
38.27788574451395
38.27635226042339
37.95327568224335
36.97949743299983
37.95161684969371
36.97740083242953
35.6783049822754
36.65491362304746
36.6526497607621
39.2519621136106
39.25071488431689
39.25104872374902
38.27810849437238
38.27863650222397
38.27694018863058
38.27652736076632
37.95409328180681
36.98055380640081
37.95224954146161
36.97818707690189
36.97980849886245
37.95180497930485
36.97763345046097
35.68156177086701
35.67933610390894
35.67860781533471
36.65606353627063
36.65349339031727
36.65525150679603
36.65289892152963
39.08677588428655
38.27587058463733
38.27453238084085
37.95109964424812
36.97676346762989
37.94967279910731
35.67533440539648
35.67748011656073
36.65196801342341
39.25062939260196
39.08700152679057
39.24936178588885
38.27641045135515
38.27494607564103
38.276031764742
38.2746594392839
36.97556745238802
37.95167852122047
36.97747410354248
37.95011242409281
37.95127209416563
36.9769740496812
37.94980606679531
36.65069646674614
35.67597165027033
35.67552301771418
35.67839421709559
35.6777491365944
36.65272708200146
36.65219257288003
36.97453529135908
37.78571883983031
36.97317950943265
37.94924210703875
36.6496091999567
35.67472008504121
36.64819648107775
35.6731387649479
36.9750067963002
37.78591799070428
36.97328341117521
37.94830010355408
36.97353195431303
37.94964009278458
37.94936558694411
39.25292474802622
39.25307928560012
38.27936277643291
38.27956618796566
37.95488927063971
36.98160485098134
37.95511258818689
36.981901301944
35.68412733155217
35.68455982157759
36.65721707311974
36.65754304853946
39.25112549092596
39.25260899725495
39.2512368514166
38.2787591467194
38.27703565670842
38.27894689944865
38.27718129566497
36.98072853997727
37.95235254676758
36.97831612647038
37.95443253047124
36.98099726187453
37.95251001561488
36.97851406236089
35.67950739283996
35.68323671374677
35.67977122141627
36.65625440929994
36.6536322554882
36.65654831516463
36.65384545907308
39.24941865374776
39.24952483012926
39.2508004842576
38.27649797790959
38.27501265051909
38.27511550016192
38.2766314062317
36.97578197852172
37.95177256652531
36.97759044207681
37.95018327950666
37.95029214905347
37.95191627011116
36.97776873443548
35.67607616136748
36.65092341955379
35.6762364146483
35.67854555580385
35.67877838164592
36.65285168671234
36.65304281982087
37.94835619040424
36.97358606950749
37.94844381536262
36.97366946948954
36.97519953999218
37.94970442250397
37.94980387149062
39.25220125282464
38.27841882618722
35.35765586884017
34.38385588298243
34.05914431204691
33.08441064561628
31.78245387036398
32.75922100180873
35.35347540059865
34.38241118086277
34.37874756753112
33.08258523532094
34.05373071220117
33.07822324527824
31.78050360728425
31.77612288537447
32.75732614208279
32.75286831091819
34.37518840834428
35.3526009831645
34.37772979604816
34.05005291080954
33.07433906205189
34.05267087976306
33.07707753474872
32.7489857714311
31.77254369065302
31.7750359548339
32.75171430121934
35.35946209532956
35.35818008129899
34.3845178905763
34.38615847902798
34.05985422456285
33.08525284488216
34.06162190884479
33.08738148904215
31.7856944472399
31.78335927253304
32.76009675959718
32.76232166568217
35.3569711990645
35.35457240835108
35.35379694029795
34.38298602885209
34.37912370395604
34.38440368402355
34.38003901888586
33.08329346405502
34.05412306789333
33.07864959215436
34.05972466854769
33.08507106884004
34.05508082877703
33.07970021922447
31.77754490516164
31.78123941091539
31.77652991217083
32.75805629993754
32.75329846676921
32.7598972475727
32.75436178365301
35.35054500346263
34.37540458371286
34.37592296147029
35.35356828312434
35.35288513961952
34.37805670666589
34.37884905635619
33.0745640025634
34.05080416842834
33.0751077775852
34.05300989624217
33.07743933856475
34.05383389204745
33.07832617735135
31.77274174637674
32.74974613104698
31.77322400193815
31.77620942851538
31.77537345956547
32.75207714992474
32.75296900404931
35.35976796065007
35.36024226311982
34.38655431452963
34.38717147322275
34.06205011704307
33.08790339820454
34.0627191040713
33.08872415740385
31.7049568650343
31.78628524827737
32.7628696565482
32.76373268173601
35.35475523563657
35.35878973616157
35.35503715815357
34.38474432210342
34.38025647469019
34.38527436106333
34.38059301272447
33.08550451120196
34.05530897226759
33.07995250109324
34.0606596578155
33.08618398070248
34.05566249595826
33.08034492706005
31.78358474280262
31.77817578679261
31.77779108699582
32.76034782883052
32.75461778637872
32.761055554094
32.75501649473605
35.35129011286051
34.37604457870983
34.37623168368476
35.35372890808279
35.3539762789765
34.37903665812412
34.37932652567947
33.07523623841507
34.05112081495552
33.07543452047854
34.05402945274025
33.07853816957625
34.05433195990393
33.07886721361221
31.77333863382134
32.75007019156378
31.77351609075681
31.77672527701498
31.77641103901078
32.75318269439367
32.75351474035529
31.45638638019951
31.45449140535427
31.4502956792508
31.44693369746896
31.44926818393726
31.45956698713919
31.45726854055436
31.45164422382647
31.45520160652227
31.45068096149901
31.44756700992959
31.45037503983966
31.44958601592633
31.54188694971735
31.54065774975107
31.45746913506912
31.45224474029953
31.4518783561511
31.44783950263222
31.45086314975115
31.4505656902457
35.83355014539262
36.48314745897603
36.48368596226445
35.83318285731671
35.8336758151565
35.83377538120424
36.48325092393958
36.48380961228542
36.48390521932941
36.48332234193913
35.83325993297498
35.83384335628397
35.83387538808346
36.48397163262023
36.4840052259697
36.4833795592165
36.48340609208684
36.32440472673339
36.64988957228746
36.32482103776675
36.64924000759321
36.32496003988617
36.32428011370533
36.64935956312702
37.78501003687914
37.13504019468848
37.78438153455251
37.13436658271151
36.64778808899358
35.67268915373668
35.83419783285599
36.48430431497614
39.08508947264858
38.43509045032206
38.43520650910051
39.08433757904262
39.08442831435171
38.4344806682799
38.43458189017804
37.13521938257117
37.7852969597747
37.13535933187816
37.78451557965566
37.13451066033762
37.78462076066965
37.13462290424047
36.32254178355235
36.3228692317153
36.64797593811176
36.6474203077271
36.32296110646352
36.32245526998764
36.64751852465064
39.08520057679371
38.43528711130965
38.43532894764554
39.08448678196993
39.08451885638188
38.43464767752925
38.43468327900909
36.97315411860482
37.78543080614224
36.97322555053663
37.78469193329717
37.1346952802231
37.78472982989868
37.13473707491377
36.32276476749703
36.64820211917909
36.32316105471016
36.64773633569686
36.32272712674247
36.64777539897035
36.3232019083631
36.32473922556373
36.3252703389393
36.64962434064097
36.65024602247675
36.32468199947508
36.32533453468736
36.64967891927531
33.88139343435675
33.23107973751753
33.88177489399701
33.23143421537978
31.93032902401699
31.93060970245655
32.58072740600429
32.5810416756886
35.18335438452007
34.53253955707006
34.53310232435637
33.23186267198989
34.04555829730457
33.06994909639084
33.23114073124174
33.88151461616152
33.23119023836797
33.881856308416
33.23151050227162
33.88192012920284
33.23156619953606
31.93071738725556
31.93037107396895
31.93066963939299
32.58078646796361
32.58083448848069
32.58111373917647
32.58116908596237
33.23122071977367
33.88156622070352
33.23123776179894
33.88196374004287
33.88198606077654
33.23163007344071
33.231608579613
31.930452833853
31.9307498070344
31.93076660704491
32.58085840318947
32.5808734072437
32.58122514996189
32.58120611055079
35.18298220925739
35.18348706674917
35.18359031205282
34.53264057569467
34.37079444281762
34.37095361316279
34.53272369494053
32.09381709764375
31.76856979104517
31.76834973687033
32.09363338145251
32.09360730097287
32.09384548954817
31.76854356169084
35.18305876345345
35.18366211731804
35.34642670377522
34.37099136222332
34.37104710207133
34.53278009945892
34.53280798739687
33.72033312848787
34.04585243638947
33.72063576039091
34.04549085575358
33.72030699544006
34.04551812828805
33.72066376316165
32.09388583071954
31.76840770295308
31.76859110033255
32.0936531058324
32.0936690176268
32.09386834411006
31.76860741450732
35.02449041175462
35.35017902984996
35.02527759238955
35.34964031939206
35.34953612559372
35.02459787511233
35.02515534430211
33.72381562186865
33.72434040507132
34.04970572311786
34.0488605679
33.72366306040061
34.04901211207503
33.72451646487998
32.42255830791015
32.4230587342326
32.7486350633291
32.74779962217871
32.4224148050364
32.74794764422634
32.42322704137974
35.02227826594677
35.34728975000603
35.34782244113661
35.02263417262689
35.34737566968516
35.02219071390157
35.02273287520207
33.72122489489838
33.72077786456901
34.0463416977552
34.04603644591678
33.72114750442025
33.72084581689113
34.04641986744014
32.0949181302826
31.76960873190662
31.76926476881304
32.09463822374553
32.09459633108851
32.09496642898016
31.76956380484027
35.02206989130643
35.34676429777438
35.34713530265869
35.02164102008317
35.34716890491578
35.02166506911978
35.02203599650207
35.02475219167937
35.35046659876186
35.02537736463961
35.34972521556505
35.34978980586084
35.02468549461452
35.02545337370279
33.72423186453256
33.72491501021047
34.05018157357031
34.04935368979199
33.72415998215206
34.04942490594131
33.72499840198934
32.42295224509688
32.42361032741812
32.74911092969455
32.74828312885079
32.42288396352311
32.74835339747857
32.42369092448681
33.72143346241503
34.04622228335528
33.72099780383221
34.04659445505779
33.72102922145181
33.72139774509136
34.04663039972898
32.09503572213678
31.76935941570809
31.76964534485668
32.09467232749599
32.09469826022912
32.09500578069172
31.76967320636449
31.27990836045841
31.28013835859233
31.28022534043141
31.27995032476679
31.28018747942243
31.44327961658177
31.44308153587219
31.44325588819627
31.12048701219064
31.44664198458371
31.12086796862139
31.44596016512244
31.44607970943352
31.12037900696058
31.12099633349598
31.11878254372705
31.44422580179736
31.11857020633848
31.44391170795888
31.4441847512823
31.11881923644937
31.28000810167712
31.28025170041568
31.28026479459716
31.12078495924777
31.44703414129536
31.12129007694579
31.4463519075615
31.44640913915111
31.1207331641829
31.12135209271658
31.11887191542988
31.44399801574071
31.44425926173813
31.11859596034941
31.44428472730103
31.11884914789237
31.11861554719592
31.44313721061018
31.44329909088065
31.44331404637483
41.03790443473051
41.6873380622464
41.03814636044383
41.03833357410493
41.687699942936
41.68754024084608
41.6864450598204
41.03738661422306
41.03686095786775
41.68689523818421
41.03720723886299
41.03760426398609
41.03705550674296
41.03777175447147
41.68722731849483
41.6867412801494
41.68708048813646
41.03846459615212
41.03853146377153
41.68786693456894
41.68781023727912
41.03736480090323
41.03789078494393
41.03795094660108
41.68737862763339
41.68732616771064
41.68687522181957
41.68682869092377
39.57532149380525
40.38792582933545
40.38731460546502
39.90114697742626
39.5768775955321
39.57657168309318
39.9016150128462
39.90151774083624
39.90123514882427
39.57647242135036
39.73645550135711
40.38671753815386
40.38614028817675