/*--------------------------------*- C++ -*----------------------------------*\
  =========                 |
  \\      /  F ield         | OpenFOAM: The Open Source CFD Toolbox
   \\    /   O peration     | Website:  https://openfoam.org
    \\  /    A nd           | Version:  7
     \\/     M anipulation  |
\*---------------------------------------------------------------------------*/
FoamFile
{
    version     2.0;
    format      ascii;
    class       surfaceScalarField;
    location    "0";
    object      phi;
}
// * * * * * * * * * * * * * * * * * * * * * * * * * * * * * * * * * * * * * //

dimensions      [0 3 -1 0 0 0 0];

internalField   nonuniform List<scalar> 
36665
(
1.795172323615617
-2.771593419896407e-05
0.0002607453879948279
-0.0002820493581554122
-1.7951776050039
5.430129266537639e-05
1.795170811355639
-3.146479392975611e-05
0.0002965638685310523
-0.0003251229199889849
6.153610503142005e-05
1.795174895469721
-3.592840178612329e-05
0.0003387290093854745
-0.0003770072061755059
7.012248432195594e-05
1.795187056728054
-4.113041501844463e-05
0.000387191288010254
-0.0004383120427986317
8.008991120727979e-05
-4.704569005046526e-05
0.0004413803097071863
1.79521053757589
-0.0005091858535402152
9.137038575645814e-05
1.795174676330376
0.0002338174557980651
-0.0002501159920836031
2.463514677734371e-05
-1.795183006850138
1.795168759855827
0.0002641676735873049
-0.0002859606055640469
1.795166568138441
0.0003008178218122199
-0.0003300833902644311
1.79516995030589
0.0003440430082690682
-0.0003833440899398965
1.795181433519723
0.0003938363618845214
-0.0004464368789580312
0.0004496669049607235
1.795204345382786
-0.0005196054163763191
1.795231572776643
-1.589894741235287e-05
0.0001526455245780113
-0.0001615608839558889
3.133676823117657e-05
1.795225289210066
-1.625757461804088e-05
0.0001564665284234934
-0.0001659609594940304
3.20355723255207e-05
1.795219520230603
-1.698152971130209e-05
0.0001641692501639736
-0.0001748643235145937
3.344558253822197e-05
1.795214617681069
-1.808375264496835e-05
0.000175868737774661
-0.0001884730782178323
3.559064267055621e-05
1.795211053815152
-1.958236517355984e-05
0.0001917202592851736
-0.0002070778844167254
3.850385634507376e-05
1.795209472262044
-2.149873084533801e-05
0.0002118946336695698
-0.0002310379796668372
4.222362989025896e-05
1.7952107462459
-2.385415935179971e-05
0.0002365385289664346
4.678703418916665e-05
1.795216042074337
-2.666454878408331e-05
0.0002657134341061778
5.221915446895746e-05
1.795226881153816
-2.993198015133203e-05
0.0002993052905040371
5.851661922013016e-05
1.795245185512805
-3.363198202569734e-05
0.0003368958474752048
6.562306328707272e-05
-3.769493180986604e-05
0.0003775881561596435
1.795273278471711
7.339412608270203e-05
1.795231231856647
0.0001539728453140184
-0.0001630021116042059
1.795224601000243
0.0001578596685005523
-0.0001674800423339194
1.795218472429923
0.0001656973013029101
-0.0001765438176148127
1.795213193062523
0.0001776073943773326
-0.0001904051613646189
1.795209232070022
0.0001937552284285348
-0.0002093696884060137
1.795207233132828
0.0002143250621200282
1.795208074619438
0.0002394802293821386
1.795212935972387
0.000269301424189905
1.795223363839547
0.000303694719676173
1.795241323171169
0.0003422596980016124
0.0003841090667484522
1.795269205045848
1.795235671583043
-1.440117240463127e-05
0.0001410755036630462
2.839484845524553e-05
1.795233551951114
-1.468552775350335e-05
0.000144322415749798
2.894927253171446e-05
1.795232070318718
-1.525724653609554e-05
0.0001508446112722866
3.006351789355534e-05
1.795231621672912
-1.612181807786328e-05
0.0001606918804595735
3.174732131460716e-05
1.795232694948879
-1.728606568966156e-05
0.0001739205833457363
3.401246585562414e-05
1.795235907869113
-1.875618725517964e-05
0.0001905690140375782
3.686888674240918e-05
1.795242042285722
-2.053468632823297e-05
0.0002106201813605508
4.031861736061093e-05
1.795252076195801
-2.261578969816338e-05
0.0002339484866427284
4.434682706744297e-05
1.795267204697716
-2.497886133312397e-05
0.0002602465761826875
4.890907372170416e-05
1.795288836318434
-2.757930683620342e-05
0.0002889296058940612
5.391392759581033e-05
-3.033660711585587e-05
0.000319017380479085
1.795318543157627
5.920054344195996e-05
1.795235401267746
0.0001422722439897285
1.795233008460926
0.0001455736208076187
1.795231248435385
0.0001522069080026795
1.795230514910031
0.000162226187932113
1.795231297414574
0.0001756941444142697
1.795234217183435
0.0001926571912609105
1.795240063936845
0.0002131077570011003
1.795249829800831
0.0002369300133817903
1.795264732649201
0.0002638250487763116
1.795286215159841
0.0002932123450351651
0.0003241075562690472
1.795315897609385
1.795239154558914
-1.305074692820027e-05
0.0001273257062181386
2.574122376438952e-05
1.795240548336864
-1.327364318928109e-05
0.0001300262047651658
2.617607653916707e-05
1.795242633524552
-1.372000392970474e-05
0.0001354328690074011
2.704655878675082e-05
1.795245812156494
-1.439047512974368e-05
0.0001435504688560128
2.835325508297614e-05
1.795250553788435
-1.528474424568848e-05
0.0001543691815413879
3.009451442831213e-05
1.795257416838155
-1.639984669103134e-05
0.0001678426861370838
3.226312506399154e-05
1.795267066654006
-1.772765669312818e-05
0.0001838566071656444
3.484141519563114e-05
1.795280286263797
-1.925137586559483e-05
0.0002021858120542862
3.779444089957404e-05
1.795297973100745
-2.094084197778873e-05
0.0002224396178078791
4.106096351047337e-05
1.795321111596984
-2.274657912424281e-05
0.0002439955587716184
4.454213013629428e-05
-2.459275190412282e-05
0.0002659256487097928
1.795350707795954
4.808828460264125e-05
1.795238942668149
0.0001283808656167964
1.795240124015194
0.0001311255126856109
1.79524199615787
0.0001366218191330576
1.795244962041906
0.0001448771711762647
1.79524949374418
0.0001558854617798033
1.79525615458877
0.0001696048623147205
1.795265618168486
0.0001859257092249323
1.79527868021507
0.0002046268943230346
1.795296256521866
0.0002253196629453669
1.795319356579007
0.000247379308329502
0.0002698685591465995
1.795349018612455
1.795242051394723
-1.186008418804421e-05
0.0001118290166176546
2.340061730541077e-05
1.795246348087659
-1.203316232843642e-05
0.0001140242050801987
2.373846945024618e-05
1.795251341307079
-1.23783690648658e-05
0.0001184059335682778
2.441208545899998e-05
1.795257417433717
-1.289339797031686e-05
0.0001249512496792875
2.541649084522386e-05
1.795265006871858
-1.357374355848151e-05
0.0001336113099865514
2.674217719738881e-05
1.795274595036631
-1.441137217235995e-05
0.0001442933838973204
2.83725098505863e-05
1.795286728466891
-1.539284094616509e-05
0.0001568359416105891
3.028007644003717e-05
1.795302012603912
-1.64968102710095e-05
0.0001709766008399412
3.242188472037759e-05
1.795321096246617
-1.769094197356993e-05
0.0001863134981380912
3.473341926962803e-05
1.795344636094008
-1.892828909875216e-05
0.0002022622077458178
3.71217930285633e-05
-2.014349365136237e-05
0.0002180129320142929
1.795373233658871
3.945864565163272e-05
1.795241886862314
0.0001127360706791042
1.7952460199255
0.0001149662851487137
1.795250851707735
0.0001194188407207974
1.795256770680197
0.0001260722513239017
1.795264210601133
0.0001348796463959617
1.795273662027867
0.0001457504568998217
1.795285679006042
0.0001585250022648496
1.795300877432467
0.0001729416916019316
1.795319919993524
0.0001885973393687495
1.795343480890196
0.0002049026702995266
0.0002210377491162506
1.795372182308121
1.795244406182363
-1.083654640555547e-05
9.496678737704736e-05
2.138783152213864e-05
1.795251048385651
-1.097010053209192e-05
9.67034339351784e-05
2.16486687053488e-05
1.795258362494394
-1.123538456226925e-05
0.0001001605965409879
2.216661329372134e-05
1.795266707115729
-1.162843752874108e-05
0.0001053014692990758
2.29335968931672e-05
1.795276465576123
-1.21425276518032e-05
0.0001120593994361855
2.393597814887051e-05
1.795288049489443
-1.276718212750476e-05
0.0001203239942642228
2.515265884994733e-05
1.795301897209754
-1.348687145667575e-05
0.0001299225531372998
2.655254000257194e-05
1.795318464556225
-1.427936291017125e-05
0.0001405972623109451
2.809135527570605e-05
1.795338204492509
-1.51138102963252e-05
0.000151979349413622
2.970802299334925e-05
1.795361531960189
-1.594873885787196e-05
0.0001635626400613432
3.132083908558277e-05
-1.673023010620401e-05
0.0001746807585525274
1.795388770250952
3.282411304520317e-05
1.795244279222459
9.572250712910961e-05
1.795250796200037
9.748625375023031e-05
1.795257988848405
0.0001009980176149838
1.795266218408813
0.000106221717573581
1.795275871763948
0.0001130915841493165
1.795287365334801
0.0001214979964179887
1.795301143847553
0.0001312685120614705
1.795317671309697
0.0001421445024288202
1.795337410788534
0.0001537545704268156
1.795360789055067
0.0001655871987036758
0.00017696692739122
1.795388142286775
1.7952462690902
-9.983777291012263e-06
7.706637128692938e-05
1.971034150177396e-05
1.795254756898103
-1.0086751150479e-05
7.83908275776384e-05
1.991155007300091e-05
1.795263877129599
-1.029042201139444e-05
8.102138978927087e-05
2.030939764158534e-05
1.795273956374999
-1.059001115362681e-05
8.491792665219863e-05
2.089430875575381e-05
1.795285331040716
-1.097778997956533e-05
9.001169131542082e-05
2.16508327939075e-05
1.795298345902751
-1.144241482660647e-05
9.619518975794502e-05
2.255635772795069e-05
1.795313348013863
-1.196806474516279e-05
0.0001033090583106855
2.357944881688775e-05
1.795330674167552
-1.253342649931674e-05
0.0001111266310234357
2.467790443937149e-05
1.795350629935676
-1.311061573468762e-05
0.0001193374911210299
2.579670623897517e-05
1.795373458411284
-1.366418677613816e-05
0.0001275321858971355
2.686616566966117e-05
-1.415047190030724e-05
0.0001351914201701835
1.795399297485396
2.780073637547882e-05
1.795246171200674
7.766974719616547e-05
1.795254563283493
7.901447215002994e-05
1.795263592332702
8.168574564137998e-05
1.795273587742741
8.564372094090514e-05
1.795284889356722
9.081991472898657e-05
1.795297846206793
9.710686610219585e-05
1.795312810566855
0.0001043447171911368
1.79533012547703
0.0001123053869820553
1.795350103697217
0.0001206756366540587
1.795372996136493
0.0001290412278791564
0.0001368755486268469
1.795398948491282
1.795247689839869
-9.302915943522232e-06
5.840402254884517e-05
1.837066309958511e-05
1.795257578712906
-9.383018265595782e-06
5.935772586383584e-05
1.852724742360309e-05
1.79526805696058
-9.540749715597688e-06
6.124840048435962e-05
1.88354918107207e-05
1.795279420477115
-9.771010482495299e-06
6.404016965897037e-05
1.928525139699191e-05
1.795291964104734
-1.006577467421743e-05
6.767325690842921e-05
1.986058199267338e-05
1.795305976978582
-1.04136611816713e-05
7.20570638652345e-05
2.053891368649523e-05
1.795321733955987
-1.079940676618207e-05
7.706144725416449e-05
2.129004076323326e-05
1.795339481990666
-1.120329493176087e-05
8.250685763508556e-05
2.207503407213008e-05
1.795359420418208
-1.160062579685957e-05
8.815444414731074e-05
2.284524555245839e-05
1.795381674503155
-1.19613539055766e-05
9.369780282497686e-05
2.354165232946757e-05
-1.225006799261036e-05
9.875870864321195e-05
1.795406262405223
2.409487781120968e-05
1.795247613692609
5.885534634106906e-05
1.795257428769446
5.982341143832723e-05
1.795267838068952
6.174286111589164e-05
1.795279140266899
6.457787494904169e-05
1.795291633395138
6.826864180718248e-05
1.795305610279172
7.272428915163409e-05
1.7953213500098
7.781395631402868e-05
1.795339104278
8.335667475998594e-05
1.795359077501061
8.91111687526274e-05
1.79538140004432
9.476727919359767e-05
9.9941396153289e-05
1.795406094654467
1.795248712881374
-8.793633238922326e-06
3.921163373823041e-05
1.736837901964885e-05
1.795259606847253
-8.857529437141168e-06
3.982796194792144e-05
1.749332810105812e-05
1.795271051702827
-8.982790537772801e-06
4.104812944660807e-05
1.773820647017379e-05
1.795283317704644
-9.164253185644912e-06
4.284564026590942e-05
1.809278125952131e-05
1.795296666632353
-9.393930572682202e-06
4.517702179821873e-05
1.854123839084267e-05
1.795311345201043
-9.660750942627726e-06
4.797756481167426e-05
1.906168174562708e-05
1.79532757526998
-9.950260604796679e-06
5.115607059471198e-05
1.962556864458182e-05
1.795345540179788
-1.024434446191272e-05
5.458910719187854e-05
2.019718547758206e-05
1.795365366801676
-1.052103880283518e-05
5.811555109147547e-05
2.073331035388481e-05
1.795387103357477
-1.075453558030381e-05
6.153252723350988e-05
2.118325573532414e-05
-1.091549996247687e-05
6.45942087800222e-05
1.795410693829901
2.148952776289421e-05
1.795248652140017
3.951176072216496e-05
1.79525948777092
4.01372589655592e-05
1.795270879199904
4.137576589595692e-05
1.795283099367566
4.32007537353469e-05
1.795296412986247
4.556862558939094e-05
1.795311069985928
4.841436191146031e-05
1.795327295706514
5.164614207123057e-05
1.795345277147213
5.513944643826778e-05
1.795365144833802
5.873142451216306e-05
1.79538695034072
6.221665929737956e-05
6.534582054261888e-05
1.795410640273381
1.795249374019136
-8.454963989634683e-06
1.968604985187599e-05
1.670176718014296e-05
1.795260915725905
-8.508512558047618e-06
1.99882587513058e-05
1.68065094602775e-05
1.795272979900005
-8.613079094091289e-06
2.058604871015459e-05
1.70109862883194e-05
1.795285818587104
-8.763536111305688e-06
2.146543408798606e-05
1.730505571961328e-05
1.795299670786292
-8.9520370819942e-06
2.260365185245231e-05
1.767320834302735e-05
1.795314754797161
-9.167860445616176e-06
2.396714329204772e-05
1.809427158089049e-05
1.795331257902333
-9.397254255933002e-06
2.550910122879282e-05
1.854111893827268e-05
1.795349323010541
-9.623330740282654e-06
2.716684855567481e-05
1.898048151775509e-05
1.795369032205933
-9.826075048438378e-06
2.885944413131634e-05
1.93729869778672e-05
1.795390387635763
-9.982547401735198e-06
3.048606578204271e-05
1.967357936979692e-05
-1.00673663617658e-05
3.192586727342673e-05
1.795413290853027
1.983249081993253e-05
1.795249323114533
1.983585088058959e-05
1.79526081632234
2.014252274589549e-05
1.795272836871817
2.074922825110835e-05
1.79528563939337
2.164194623778997e-05
1.795299465619195
2.279782311640869e-05
1.795314536729677
2.418310961333706e-05
1.795331042988394
2.575064861094455e-05
1.795349130276733
2.743718224706981e-05
1.795368883459389
2.916087937165912e-05
1.795390307004752
3.081964252515945e-05
3.229090602712209e-05
1.795413303976495
1.795249698199868
-8.28592555873702e-06
1.636901390652339e-05
1.795261556977636
-8.334438000730695e-06
1.64639194597083e-05
1.795273923220293
-8.428944071600412e-06
1.664875055570595e-05
1.795287039557948
-8.564356297627244e-06
1.691345318402832e-05
1.795301133409126
-8.732930358118516e-06
1.724273152858656e-05
1.795316408861765
-8.924159786261089e-06
1.761585077771532e-05
1.79533303617464
-9.12468740417994e-06
1.800647613091064e-05
1.795351138664735
-9.318280841458478e-06
1.838263966055196e-05
1.795370777089602
-9.485929552965954e-06
1.870694917665842e-05
1.795391932116708
-9.606132797360318e-06
1.893717174600567e-05
-9.655449416471592e-06
1.795414486103141
1.902733041138618e-05
1.795249652082717
1.795261467137806
1.795273794494037
1.795286879307227
1.79530095162167
1.795316218235186
1.795332852139893
1.79535097929368
1.795370662821391
1.795391885235112
1.795414529902523
-4.197992942319224e-05
0.0004197849620459678
-0.0004998688499117961
1.795313792015591
8.155027325845973e-05
0.0004276369737801118
-0.0005101306098846605
1.79530974313608
-3.311956384062931e-05
0.000349002013564359
1.795357933716723
6.451195300419897e-05
0.000354983735097588
1.795355452422427
-2.636967076800372e-05
0.0002869247885018662
1.795387669339206
5.148535260450275e-05
0.0002914623016417474
1.795386188587592
-2.124945105132048e-05
0.0002324965089025534
1.795407337282072
4.157410754207691e-05
0.0002359160169594344
1.795406494896298
1.73908104290363e-05
0.0001870407256325719
1.795419640541127
-0.0001037241570543515
1.795261641958732
-0.0005634852427886899
-1.795222281379736
0.0004802184648436124
-5.355950266050356e-05
1.79524936936518
-0.0005888652942522741
1.795242863209132
-0.0006021805276552514
0.0001844944943393656
1.795420076849467
3.408622676265557e-05
-1.451759260110923e-05
0.0001416842824322477
1.795428126137622
2.849915259162026e-05
0.0001435373702043291
1.795427946485056
-1.242653163980724e-05
0.0001028897870465603
1.795433057121165
2.442631130292848e-05
0.0001041789291392288
1.795433037637878
-1.097183816817528e-05
6.70152148929592e-05
1.795435950876367
2.158936406966982e-05
6.782898729795761e-05
1.795436028630682
-1.005356125635747e-05
3.30401075698628e-05
1.795437522588834
1.979693298953816e-05
3.343374310313541e-05
1.795437655389122
-9.609375111308208e-06
1.795438206146365
1.892943955790917e-05
1.795438363745106
-6.513200842551751e-05
0.0005995521110385057
0.0001255035786696254
-1.795306490956378
1.795386945388287
-0.0007403781132284231
1.795300169031364
0.0005574058564972619
5.881008340715432e-05
-0.0006734858229412244
0.0006141271431419914
1.795381799659431
-0.0007608460160570372
-9.420480139439169e-05
-0.000571815290927489
1.795443507967562
-1.79537475345613
0.0004635772435385802
1.795367828488907
-4.503121941248065e-05
0.0004489100078997983
-0.0005451950960447154
8.727983416889767e-05
-4.868525345578383e-05
0.0004836338527426559
1.79543822719873
1.795364174454853
0.0004579727156127826
0.0004941060962458296
1.795435544624176
1.795407011563299
-3.480468050518559e-05
0.0003669663638889059
6.76704779591605e-05
-3.686816643512199e-05
0.0003885741942042387
1.795467366861899
7.157252625882998e-05
1.795404948077362
0.0003736965859367134
0.0003961574112047542
1.795466056029547
1.795431394267077
-2.721016460649528e-05
0.0002974047583330655
5.304684227683804e-05
-2.831111414914929e-05
0.0003103860458989741
1.79548277617625
5.511735327455784e-05
1.795430293317537
0.0003024018030354431
0.0003159001672846467
1.795482261651372
1.795446042609107
-2.157140037271154e-05
0.0002381185774872988
4.215225427311746e-05
-2.208887034205135e-05
0.0002455428617786038
1.795489861887603
4.311277604503698e-05
1.795445525139137
0.0002418170752633841
0.0002495528769088237
1.795489801818576
1.795454420318556
-1.739794220867392e-05
0.0001871068227075057
3.406622808664895e-05
-1.756388984119894e-05
0.0001910591860434032
1.795492110060664
3.435782367417738e-05
1.795454254370938
0.0001898197612792535
0.0001939577070069149
1.795492300960568
1.795458880243672
-1.433660858651773e-05
0.000142568011625599
2.812131378959794e-05
-1.429314136141882e-05
0.0001444524354950831
1.795491766025343
2.801411033924749e-05
1.795458923710903
0.000144518533181028
0.000146511647251657
1.795492089767322
1.795461006664887
-1.213560143288373e-05
0.0001029148510579302
2.383921843083241e-05
-1.196948601903478e-05
0.0001036621436889077
1.795490268168095
2.349827471755084e-05
1.795461172780293
0.0001042590408554451
0.0001050681704958062
1.795490658350289
1.795461849924685
-1.061879104004039e-05
6.675053524456598e-05
2.088405865576597e-05
-1.038289752131122e-05
6.695793212468012e-05
1.795488526965364
2.04100684596583e-05
1.795462085818201
6.759337020412204e-05
6.783374658407925e-05
1.795488947854054
1.795462083955428
-9.667719368166986e-06
3.282763636747178e-05
1.902925166222603e-05
-9.394611145997523e-06
3.28491030047358e-05
1.79548710310349
1.84842922250316e-05
1.795462357063656
3.323368903589608e-05
3.326937971830555e-05
1.795487536661234
1.795462108178803
-9.209521497078144e-06
1.813512542735448e-05
-8.92036257973363e-06
1.795486318086205
1.755955808846459e-05
1.795462397337729
1.795486755876219
1.795318433547429
-0.0001135609876184305
-0.0006259481052147041
0.0005219048690982644
1.795397295226394
-0.0007018841288441991
-0.0006570675922075604
1.795500627019649
0.0006127687913536087
-0.0001358534167826667
-0.0007701123879094073
1.79562466162745
0.0006372120989035049
-0.0001430364943029272
-0.0008161335529713233
0.0006393445546409446
-0.0001444319985158355
1.79577664267277
-0.0008495866308930505
1.795528209332069
-9.94855702405964e-05
0.0004869374832714897
1.795627067932735
0.0004966269463650975
-0.0001020449277547492
0.000487669723708663
-0.0001007985257297814
1.795737395066183
1.795616960425257
-7.451740689513262e-05
-1.795539143114183
0.0003874815965095679
-7.229208166076014e-05
1.795700053135732
0.0003743730137449848
1.795493443942135
-7.027773728186501e-05
0.0006449977953270275
-0.0008170720292284273
1.795623266123229
-7.170899850695737e-05
0.0006735386204608683
-0.0008746882981447897
-6.23351483475463e-05
0.000678012320306088
1.795781072300656
-0.0009179153488076962
1.79549201268091
0.0006617556625130305
-0.0008421974425325088
1.795632639973384
0.0006908341625615944
-0.0009031191225780765
0.000688684773213572
1.795771497841294
-0.0006497170491062687
4.574836128071191e-05
-0.0001144538079745905
-0.0001714057829509397
1.79552564997455
-5.136782800253681e-05
0.0005094572767304443
1.795628314334756
-5.219236617183257e-05
0.0005210216978732234
-5.029214106022081e-05
0.0005129319920829331
1.795742888277395
1.795524825436381
0.0005211451512984837
1.795630214559879
0.0005332930743073376
0.0005246459670878351
1.795744002162074
1.795538699496483
-3.81789987948568e-05
0.0004022298516136177
7.407378919740093e-05
1.795619185750489
-3.834510191570432e-05
0.0004043631382939961
-3.707385960893816e-05
0.0003914938120198796
1.795705405707849
1.795538533393348
0.0004105187523322229
1.795620456992807
0.0004130558998200572
0.0004001885645964067
1.795707872356751
1.795541106739414
-2.88256390277287e-05
0.0003166653678976052
5.605955948989541e-05
1.795604663747809
-2.853601759756899e-05
0.0003138742065900149
5.546794072463726e-05
-2.726252857967102e-05
0.0002998214185579344
1.795670626035879
5.297263373347405e-05
1.795541396360854
0.0003225822257757025
1.795605937236822
0.0003200037417533193
0.0003059138825397354
1.795672974077867
1.795537957137697
-2.214893937481072e-05
0.000247535181500821
4.31838756296683e-05
1.795588806303392
-2.161932870372566e-05
0.0002425315554411185
4.211281398809036e-05
-2.0387671532257e-05
0.00022916667073254
1.79564017029611
3.967842636669958e-05
1.795538486748363
0.0002517676040483664
1.795590037960558
0.0002468529108529802
0.0002334034586841644
1.795642180181794
1.795532310946911
-1.737298993976896e-05
0.0001907543036643773
3.395298157813883e-05
1.795573725102713
-1.674302566346808e-05
0.0001851666806800267
3.269374459581298e-05
-1.560679606539763e-05
0.0001734532828777225
1.795614594868354
3.045041810602469e-05
1.795532940911187
0.0001937705486223543
1.795574861332319
0.0001882055325925755
0.0001763946631331956
1.795616279080811
1.795526005762461
-1.396939938609642e-05
0.0001431250418924464
2.735892404298298e-05
1.795560507472615
-1.33139249669507e-05
0.000137922192415374
2.60567030726054e-05
-1.22876843302703e-05
0.0001283297885237289
1.79559388604148
2.403260977184806e-05
1.795526661236877
0.0001452431326427472
1.795561533713247
0.0001400326066991937
0.0001303511076248683
1.795595302723591
1.795520134764025
-1.157930382395256e-05
0.0001021190985424536
2.27186512820692e-05
1.795549683214034
-1.093249168594388e-05
9.786866747653881e-05
2.143756667662402e-05
-1.000678780959637e-05
9.060514908046244e-05
1.795577802218034
1.961242326990788e-05
1.795520781576165
0.0001035523372651771
1.795550608917907
9.928444131901415e-05
9.195022847055398e-05
1.795579014351055
1.795515338493452
-9.962008832075969e-06
6.569611283148891e-05
1.957346649438793e-05
1.795541486915958
-9.334904452562525e-06
6.272187694871437e-05
1.833327248713116e-05
-8.488973583292545e-06
5.786501664426424e-05
1.79556605063847
1.666538362721787e-05
1.795515965597829
6.658315453220242e-05
1.795542332846829
6.359274476608334e-05
5.868768525356789e-05
1.795567116564292
1.795511982306756
-8.961053402544654e-06
3.215342461042786e-05
1.762453829799486e-05
1.795536006338572
-8.352199965211269e-06
3.062876906056999e-05
1.64212760055037e-05
-7.560658019656086e-06
2.819928359689783e-05
1.795558372326447
1.486040330801989e-05
1.795512591160197
3.257745193528205e-05
1.795536797880509
3.104353834970652e-05
2.858976551540592e-05
1.795559344561696
1.795510261855235
-8.482572562495077e-06
1.669222799143029e-05
1.795533264859053
-7.884166083338239e-06
1.550993119720776e-05
-7.120030492175032e-06
1.795554581234292
1.400293881326775e-05
1.795510860261707
1.795534028994638
1.795555507804089
0.0006045635216846749
1.795925785117305
-0.0001400023706303682
-0.0002450254621343406
-0.000153837676267643
1.795849369755721
0.0004545774914177514
-9.530531450871243e-05
1.795957090625677
0.0003956787452352727
-0.0005368446098827917
-8.345514844753704e-05
0.0003091166445875367
-0.0004261409323962578
-6.403160095658121e-05
1.795782907243755
-6.693950954183116e-05
0.0003441377491808971
1.795859412236538
0.0002954513335140519
-5.773045924684185e-05
0.0002283663579223612
-4.436331718632313e-05
1.795783712221144
-4.115078355104228e-05
-1.795727968527849
0.0002223843505351438
-3.159425810860295e-05
0.0001706371835526676
1.796082010848359
-0.000124683989306267
-0.0001925664474211608
-0.0001820598802874662
-9.894498587925786e-05
-0.0001518310651459909
-0.0001566259805745596
-2.483963666468724e-05
1.795573436365067
-6.193460690634469e-06
1.217796649777824e-05
1.795941103498627
-7.190960771319713e-05
0.000644173829603782
-0.0003012579853417796
-0.0002022025301675612
-0.000173633674758561
-0.0001952036010409997
1.796107749851799
-6.628832535559342e-05
0.0005733814027472737
-0.0002095478072047241
-0.0001923973846517379
-0.0002012273775753859
-0.0001952508510588702
-5.426185545331919e-05
0.0004570809997577421
-0.0001687426458518715
-0.0001781206820988535
-0.0001504229686245251
-0.0001419163614513885
0.4491589981041997
0.4491730356345578
0.4485888377051314
0.4493243169352532
1.795946724780975
0.000664318239642729
-0.0002319671260777034
-0.0002336928943430239
-0.0002230929312697361
-0.000222649105477063
1.796119776321696
0.0005932715983702338
-0.0002133140547895818
-0.0002036750317348512
-0.0002120601603398664
-0.0002035150169842348
0.0004741243601458223
-0.0001709127958852419
0.4491535253376033
-0.0001646557776836532
-0.0001660730628584017
-0.0001660641965465781
0.4491445320681545
0.448993703524681
0.448967371452281
1.79586121992179
-4.917825638150619e-05
0.0004797151261279426
1.79597651417317
-4.384383458244367e-05
0.0004184758363326109
-3.50297899688265e-05
0.0003265465794381799
1.79586655434359
0.0004926279140480502
1.795985328217789
0.0004306893466708102
0.000336817414093982
1.795792116294045
-3.460721070315148e-05
0.0003606722404386334
1.795872779378598
-3.006186757659179e-05
0.0003101441593085001
-2.343997667314732e-05
0.0002396822342952106
1.795796661637169
0.0003692618841111043
1.795879401269495
0.0003179146303651237
0.0002459059491720067
1.795735099406365
-2.49144866018014e-05
0.0002728316940476816
4.828166206534935e-05
1.795793268746593
-2.129351410340994e-05
0.0002321175488974685
-1.641701352700648e-05
0.0001781626503484581
1.795738720378864
0.0002786244856025633
1.795798145247176
0.0002372168757047017
0.0001821529086640794
1.795689156758456
-1.83777858566707e-05
0.000206501854377784
3.572116287325754e-05
1.795732384970229
-1.553933272191501e-05
0.00017426101990383
3.016764970208353e-05
-1.191432698865494e-05
0.0001330545102717906
2.310237229730679e-05
1.795691995211591
0.0002104500323753424
1.795736009975968
0.0001776791099342023
0.0001356991099973222
1.795652775562147
-1.392258359555024e-05
0.0001551012239293224
2.714252002441594e-05
1.795685886728457
-1.168229220505594e-05
0.000130072147974026
2.27599975606178e-05
-8.930108270569213e-06
9.892004827811827e-05
1.739061506417507e-05
1.795655015853533
0.0001578055201097114
1.795688638912395
0.0001323871074916383
0.0001006982440015751
1.795624532257037
-1.087100220919552e-05
0.0001140763845342008
2.124962595279328e-05
1.795650734082052
-9.070046033343395e-06
9.521874107814191e-05
1.772162787471165e-05
-6.923556994048677e-06
7.220250488323296e-05
1.352482410571788e-05
1.795626333213221
0.0001159164332449336
1.795652880571097
9.67809883281276e-05
7.339596355393496e-05
1.795603252918582
-8.794654788852519e-06
8.019095791191567e-05
1.722938095066493e-05
1.79562476210517
-7.307175293074931e-06
6.670585678371892e-05
1.43108732046926e-05
-5.576834589407323e-06
5.047783680587653e-05
1.092062903506087e-05
1.795604740398083
8.140646922107658e-05
1.795626492445876
6.773163588036368e-05
5.125817930462517e-05
1.79558803606335
-7.423047750027606e-06
5.106053488537298e-05
1.456804611508796e-05
1.795606450085941
-6.149665843685065e-06
4.237530617956509e-05
1.206619414395041e-05
-4.696280653185417e-06
3.202316612060941e-05
9.213678168862202e-06
1.79558930944524
5.180017536458922e-05
1.795607903471137
4.299687584927628e-05
3.24945981020619e-05
1.795578235479226
-6.588422769676681e-06
1.294616845958768e-05
1.795594768526016
-5.448274315256095e-06
2.058668567648554e-05
1.070384823853042e-05
-4.164307453472128e-06
1.554562185772437e-05
8.1807314137898e-06
1.795579375627682
2.518965008737694e-05
1.795596052492883
2.088009418235257e-05
1.576775935647978e-05
1.795589080089776
-5.117186339215243e-06
1.006014756532175e-05
-3.913643127520533e-06
7.693532311395218e-06
1.795574512639426
1.795590283632976
1.795059809495385
-7.077869423142466e-05
-0.0002554008744439784
-1.795093200942347
0.0002571739303478718
1.795024841278249
-8.291432459937474e-05
-0.0003018326189252818
0.0003002035342660748
1.794989036772016
-9.853037245477403e-05
0.0003549431734723817
-0.0003620120936101929
1.794954016682667
-0.0001184304899390165
0.0004237105670891948
-0.0004393510170070413
1.794922822389729
-0.0001436100366021246
0.0005091813208322017
-0.0005381576239687109
-0.0001752512961001699
0.000614182267971488
1.794900699302758
-0.0006636168410713244
1.795209504728717
-2.2868179155465e-05
0.0001674513899985186
-0.0001610022242306639
4.500952275284897e-05
1.795180352035729
-2.365534992327368e-05
0.0001732409989898542
-0.0001669724701377718
4.653951378223367e-05
1.795150094487113
-2.527024044240962e-05
0.0001850948174393352
-0.0001792432140667265
4.967618559856971e-05
1.795118236381199
-2.779665546418712e-05
0.0002035766842664973
-0.000198499633623861
5.457771067408307e-05
1.795084374156303
-3.136719144899246e-05
0.0002295687022435182
-0.0002258327353968247
6.149344921005715e-05
1.795048273061767