/*--------------------------------*- C++ -*----------------------------------*\
  =========                 |
  \\      /  F ield         | OpenFOAM: The Open Source CFD Toolbox
   \\    /   O peration     | Website:  https://openfoam.org
    \\  /    A nd           | Version:  7
     \\/     M anipulation  |
\*---------------------------------------------------------------------------*/
FoamFile
{
    version     2.0;
    format      ascii;
    class       volVectorField;
    location    "0";
    object      U;
}
// * * * * * * * * * * * * * * * * * * * * * * * * * * * * * * * * * * * * * //

dimensions      [0 1 -1 0 0 0 0];

internalField   nonuniform List<vector> 
12689
(
(0.9999648342308991 -2.227191936369042e-05 0.0001565754075453367)
(0.9999629421007491 -2.5254554459285e-05 0.0001793327274577037)
(0.9999636583996376 -2.879830096900423e-05 0.0002064623698733594)
(0.9999681829728563 -3.291758858732435e-05 0.0002381259608102549)
(0.9999781098194024 -3.758712403352696e-05 0.0002742017778598277)
(0.999966993989265 -6.691370625037685e-06 0.0001395961868889432)
(0.9999630259935016 -7.528082534198541e-06 0.0001586908497551975)
(0.9999607677437625 -8.546358013008366e-06 0.0001819907342528806)
(0.9999610993014726 -9.75899595010751e-06 0.0002098232014064316)
(0.9999652395270285 -1.117259572086334e-05 0.0002423865117815049)
(0.9999748190577287 -1.278050912096179e-05 0.000279597785001071)
(0.9999981833993326 -1.282694002330673e-05 9.063646400016379e-05)
(0.9999946167337016 -1.311408731731997e-05 9.300792920497914e-05)
(0.9999912599237972 -1.369356927407247e-05 9.779814625543146e-05)
(0.9999882877472861 -1.457537459057457e-05 0.0001050986007650674)
(0.9999859297270649 -1.577341360204265e-05 0.0001150379260678547)
(0.9999844966528009 -1.730391692389064e-05 0.0001277690230778102)
(0.9999844109902774 -1.91827379010442e-05 0.0001434472837388256)
(0.9999862407788471 -2.142100562474832e-05 0.0001621953757607403)
(0.9999907345860917 -2.40183696567391e-05 0.0001840483557373584)
(0.9999988514588747 -2.695287868423769e-05 0.0002088712890823434)
(1.000011773788792 -3.016642520375199e-05 0.0002362409036154322)
(0.9999980884481408 -4.319097418651373e-06 9.143508372641123e-05)
(0.9999943301060334 -4.416495326407466e-06 9.384799350794476e-05)
(0.9999907764195449 -4.613113386746803e-06 9.872339968980337e-05)
(0.9999875991424612 -4.912471535763091e-06 0.000106157468000488)
(0.9999850255674207 -5.319502246715952e-06 0.0001162860337022728)
(0.9999833656400537 -5.840026992757162e-06 0.0001292718801706796)
(0.9999830432731804 -6.479865434848283e-06 0.0001452830489314949)
(0.9999846315971936 -7.24338505316043e-06 0.0001644574748083061)
(0.9999888898680462 -8.131219705278443e-06 0.0001868474215226649)
(0.9999967961170438 -9.136800968490233e-06 0.0002123354018902303)
(1.00000956356177 -1.024127462737155e-05 0.0002405122995314935)
(0.9999993249767098 -1.162133324999306e-05 8.472721968492073e-05)
(0.9999980596050049 -1.184910525061453e-05 8.676604158844901e-05)
(0.9999970566003504 -1.230693171978766e-05 9.08693831086121e-05)
(0.9999965189897106 -1.299894733535741e-05 9.708479371941579e-05)
(0.9999966929583247 -1.393020468686629e-05 0.0001054733199896848)
(0.9999978867264975 -1.510508474934531e-05 0.000116095282992447)
(1.000000490096175 -1.652481953619465e-05 0.0001289880895173993)
(1.000004993211035 -1.818381403548808e-05 0.0001441332463698778)
(1.000012001309864 -2.006439615696345e-05 0.0001614091923154761)
(1.000022239540302 -2.212962831575642e-05 0.0001805265730892869)
(1.000036538050359 -2.431396760837234e-05 0.0002009439047956361)
(0.9999992496899565 -3.912455682643314e-06 8.545531422223505e-05)
(0.9999978329483052 -3.989692501624663e-06 8.75288334542795e-05)
(0.9999966763239072 -4.144985698097976e-06 9.170313729968964e-05)
(0.9999959818336033 -4.379831812802964e-06 9.80289179758773e-05)
(0.9999959954750218 -4.696093832697562e-06 0.0001065719344718868)
(0.9999970266121766 -5.095470579783843e-06 0.000117398726938808)
(0.9999994682165204 -5.5786646066784e-06 0.0001305542268413185)
(1.000003816558238 -6.144138198492202e-06 0.0001460282992975301)
(1.000010687154519 -6.786322045005369e-06 0.0001637076255151391)
(1.000020821007822 -7.493136236996482e-06 0.0001833092431856841)
(1.000035071195672 -8.242722731112655e-06 0.0002042932566376649)
(1.000000295036303 -1.053402652369802e-05 7.742342592726513e-05)
(1.000000978260096 -1.071263940976755e-05 7.913902515054505e-05)
(1.000001947202783 -1.107023039224775e-05 8.25800423883718e-05)
(1.000003413253344 -1.160713363576699e-05 8.776221614872726e-05)
(1.00000561916238 -1.232281593319246e-05 9.469897063851755e-05)
(1.000008851235523 -1.321451388175196e-05 0.000103387990434999)
(1.000013450309487 -1.427522210755681e-05 0.0001137913813076314)
(1.000019819778167 -1.549088989743814e-05 0.0001258079707759874)
(1.000028427674478 -1.683669718016868e-05 0.0001392364021146614)
(1.000039798125369 -1.827236501471489e-05 0.0001537284128863291)
(1.000054485507319 -1.973666077537712e-05 0.0001687335661121763)
(1.000000236021634 -3.545799013024092e-06 7.807301238649788e-05)
(1.00000080106565 -3.606349579793106e-06 7.98170577424279e-05)
(1.000001651507084 -3.727607265329032e-06 8.331597897746611e-05)
(1.00000299896811 -3.909752172222387e-06 8.858750743710766e-05)
(1.000005087155279 -4.152707001442621e-06 9.564796332321426e-05)
(1.000008204442865 -4.455677422607306e-06 0.00010449866930466)
(1.000012695330271 -4.816470967980439e-06 0.0001151058075652014)
(1.000018969045819 -5.230542200190863e-06 0.0001273721849108574)
(1.000027502274214 -5.689715997106518e-06 0.0001410994360735605)
(1.000038831234994 -6.18056579459181e-06 0.0001559399000110366)
(1.000053526246958 -6.682491466111977e-06 0.0001713392640642049)
(1.000001101847336 -9.575104284444282e-06 6.898693927689145e-05)
(1.000003400386337 -9.713848285477806e-06 7.03991566908254e-05)
(1.000005987762457 -9.990511356941204e-06 7.322273150888451e-05)
(1.000009070736824 -1.040311636005866e-05 7.745241881159078e-05)
(1.000012876795978 -1.094785779163119e-05 8.307129563106044e-05)
(1.000017661008989 -1.161803692864485e-05 9.003925097146308e-05)
(1.000023710790101 -1.240255946246593e-05 9.827669676437346e-05)
(1.00003134698258 -1.328395596748881e-05 0.0001076430037174907)
(1.00004091891062 -1.423592568241998e-05 0.0001179095526753894)
(1.00005279017444 -1.522049643974499e-05 0.0001287282018813619)
(1.000067311204383 -1.618506368982927e-05 0.0001395976675178957)
(1.000001056022659 -3.222503668873296e-06 6.955296239171625e-05)
(1.000003263163715 -3.269526291061176e-06 7.098801861005151e-05)
(1.00000576000395 -3.363315286653598e-06 7.385788264748617e-05)
(1.000008754245969 -3.503247665476621e-06 7.815848725966363e-05)
(1.000012474892672 -3.688104964863848e-06 8.387455043398409e-05)
(1.000017179379426 -3.915712241361893e-06 9.096788054598724e-05)
(1.000023158643395 -4.182426925067796e-06 9.936078215918166e-05)
(1.000030738530616 -4.482461990837684e-06 0.0001089140151699978)
(1.000040275145163 -4.807041549079368e-06 0.0001193991352829177)
(1.000052140829676 -5.143416875592434e-06 0.0001304659553737579)
(1.000066696646744 -5.473829750847576e-06 0.0001416075889246412)
(1.000001757690047 -8.750585385163003e-06 5.965263576637045e-05)
(1.000005365330615 -8.857683026225561e-06 6.078681894940767e-05)
(1.000009252367123 -9.070370106862895e-06 6.304803753151909e-05)
(1.000013613551893 -9.385380037566647e-06 6.64190535514512e-05)
(1.000018655524259 -9.797180454493257e-06 7.086655079501976e-05)
(1.0000245996867 -1.029719819646336e-05 7.633193600813771e-05)
(1.000031682767685 -1.087277121522675e-05 8.271879656189082e-05)
(1.000040153807505 -1.150584157633752e-05 8.987707590757781e-05)
(1.000050265915433 -1.21714461086675e-05 9.758447525530147e-05)
(1.000062260815741 -1.283613538965095e-05 0.0001055263984072441)
(1.000076344117163 -1.345656732141226e-05 0.0001132770261223797)
(1.000001722329865 -2.944574774025153e-06 6.013228205739736e-05)
(1.000005259733058 -2.980863258273702e-06 6.128438622218106e-05)
(1.000009078063892 -3.05294589222801e-06 6.358178605973094e-05)
(1.000013373374029 -3.159749151717769e-06 6.700787564483715e-05)
(1.000018354026899 -3.299447994268766e-06 7.153016265329455e-05)
(1.000024243754296 -3.469202161141847e-06 7.709089999951923e-05)
(1.000031282398271 -3.664798364387517e-06 8.359428297474905e-05)
(1.00003972305441 -3.880202216096653e-06 9.089024828076677e-05)
(1.000049823926568 -4.107038016711171e-06 9.87553585935418e-05)
(1.000061832847692 -4.334039556506793e-06 0.0001068720775984096)
(1.000075962310065 -4.546555214243921e-06 0.0001148090412989)
(1.000002276537057 -8.063489154604551e-06 4.962494961594114e-05)
(1.000006917052441 -8.146090418777937e-06 5.050796005177376e-05)
(1.000011821148296 -8.309433784909878e-06 5.226403451967636e-05)
(1.00001716848271 -8.549621354869057e-06 5.487097959999705e-05)
(1.000023143709945 -8.860358769966272e-06 5.828973771481068e-05)
(1.00002993654924 -9.232425306179712e-06 6.24574569314702e-05)
(1.000037739684994 -9.65298859659124e-06 6.727834945614943e-05)
(1.000046743578373 -1.010480107370139e-05 7.261266153743189e-05)
(1.000057127137498 -1.056535036370415e-05 7.82644732324816e-05)
(1.000069043173552 -1.10060870864082e-05 8.396966133417634e-05)
(1.000082597796153 -1.139192293712571e-05 8.93862054007822e-05)
(1.000002249273394 -2.71300732306036e-06 5.00169964386511e-05)
(1.000006835864285 -2.740989669167656e-06 5.09136709340993e-05)
(1.000011687903711 -2.796336700425255e-06 5.269723940087437e-05)
(1.000016986493158 -2.877751900788004e-06 5.534579957281888e-05)
(1.000022918025047 -2.983138040591034e-06 5.88206246717701e-05)
(1.000029674361189 -3.109416395536125e-06 6.305909496240883e-05)
(1.000037450825548 -3.252292035682363e-06 6.796535458943345e-05)
(1.000046441073225 -3.405977552960427e-06 7.339900656216228e-05)
(1.000056827754095 -3.562899220344877e-06 7.916255973353488e-05)
(1.00006876785819 -3.713426897839971e-06 8.498896920791836e-05)
(1.000082371845928 -3.845693717681608e-06 9.05314834667504e-05)
(1.000002672236573 -7.514808101681962e-06 3.907799822185818e-05)
(1.00000809866855 -7.579080769590908e-06 3.973515965057567e-05)
(1.000013771208801 -7.705617310859634e-06 4.103936257493517e-05)
(1.000019854458781 -7.890278010544616e-06 4.296868163022044e-05)
(1.000026512947203 -8.12655374964452e-06 4.54860427548811e-05)
(1.000033909320288 -8.405225072375418e-06 4.853430393376048e-05)
(1.000042200658174 -8.713944803246426e-06 5.202995352432511e-05)
(1.000051532292841 -9.036787617269511e-06 5.585581403811072e-05)
(1.000062028522369 -9.353835754507213e-06 5.985344286786578e-05)
(1.000073779752635 -9.640902555205967e-06 6.381634290060938e-05)
(1.000086825929392 -9.869532696352259e-06 6.748561407878844e-05)
(1.00000265102845 -2.528115324022965e-06 3.938223851835785e-05)
(1.000008035698986 -2.549884819177459e-06 4.004938950063805e-05)
(1.000013668482848 -2.592752494356614e-06 4.137363656060087e-05)
(1.000019715451636 -2.655333958229619e-06 4.333315266256018e-05)
(1.000026342797122 -2.735450299664711e-06 4.589092976804997e-05)
(1.000033715081707 -2.830011333426458e-06 4.898975632521881e-05)
(1.000041991592424 -2.934872146137222e-06 5.254577120341309e-05)
(1.000051320159737 -3.044677459668815e-06 5.6440979348666e-05)
(1.000061827816452 -3.152717265735807e-06 6.051542463854232e-05)
(1.000073607804419 -3.250827738573296e-06 6.456014626898814e-05)
(1.00008670276757 -3.329385278236796e-06 6.831258022703784e-05)
(1.000002957168549 -7.104339535357968e-06 2.815836239050268e-05)
(1.00000894846553 -7.155620797135838e-06 2.861125610354202e-05)
(1.000015170153203 -7.256132808275656e-06 2.950861439916702e-05)
(1.000021773972898 -7.401694698804917e-06 3.083244517263698e-05)
(1.000028908104466 -7.585843296129498e-06 3.255296501153286e-05)
(1.000036714171104 -7.799626117931267e-06 3.462537365879922e-05)
(1.000045322677603 -8.031367425477762e-06 3.698582245240975e-05)
(1.000054846478047 -8.266449940299686e-06 3.954691293285367e-05)
(1.000065371970964 -8.487172400482679e-06 4.219326785934054e-05)
(1.000076947922311 -8.672762296749655e-06 4.477797982456342e-05)
(1.00008957216094 -8.799641149145629e-06 4.712103387008822e-05)
(1.000002940251197 -2.389813281580644e-06 2.837512703347464e-05)
(1.000008898383682 -2.407180210964553e-06 2.883480877634692e-05)
(1.000015088944128 -2.441226759236737e-06 2.97457577858842e-05)
(1.000021665118258 -2.49055083948157e-06 3.108998904757064e-05)
(1.000028776650263 -2.552983563634396e-06 3.283767328747285e-05)
(1.000036566875536 -2.625517955034382e-06 3.494384165281582e-05)
(1.000045168163676 -2.704228113138067e-06 3.73442591475955e-05)
(1.000054695357138 -2.78419294345824e-06 3.995080419380266e-05)
(1.000065236891263 -2.859445008210689e-06 4.264690190530328e-05)
(1.00007684348362 -2.922971339991855e-06 4.528382840886013e-05)
(1.000089514627269 -2.966799475618699e-06 4.7679004818126e-05)
(1.000003141305065 -6.831353722452877e-06 1.698971642022307e-05)
(1.000009497143846 -6.874337875790736e-06 1.72546790478539e-05)
(1.000016071726051 -6.958259134100003e-06 1.777908985291238e-05)
(1.000023007536199 -7.078971057867138e-06 1.855127144823915e-05)
(1.000030441337419 -7.230131300593578e-06 1.95521173992319e-05)
(1.000038500494068 -7.403078955640364e-06 2.075328118176754e-05)
(1.000047297966706 -7.586713410328973e-06 2.211495341262489e-05)
(1.000056925718441 -7.767414535587877e-06 2.358344877333279e-05)
(1.000067446413077 -7.92905563662019e-06 2.508894092965138e-05)
(1.000078883510288 -8.053172355729502e-06 2.654382490833242e-05)
(1.000091210189187 -8.119357769293049e-06 2.784232963080268e-05)
(1.00000312712739 -2.29784189766891e-06 1.711950334295169e-05)
(1.000009455280828 -2.312397649362159e-06 1.738839857460866e-05)
(1.000016004205268 -2.340821890242515e-06 1.792067138657815e-05)
(1.00002291779269 -2.381722036385399e-06 1.870462499424954e-05)
(1.00003033428732 -2.432966905194541e-06 1.972109097282667e-05)
(1.000038382617062 -2.491644226667284e-06 2.094157832246239e-05)
(1.000047177375061 -2.554018228044336e-06 2.23259973121659e-05)
(1.000056812182594 -2.615500746190498e-06 2.382018135353833e-05)
(1.000067351305818 -2.670653454785704e-06 2.535354919725629e-05)
(1.000078819625292 -2.713242493288563e-06 2.683739475650152e-05)
(1.000091191387353 -2.736369670151815e-06 2.816444035465763e-05)
(1.000003231594128 -6.695091319558409e-06 5.678668226502708e-06)
(1.00000976603087 -6.7340367249203e-06 5.76584387056894e-06)
(1.000016513052475 -6.809891213116531e-06 5.938283281775384e-06)
(1.000023610322853 -6.918543092334403e-06 6.191952140765234e-06)
(1.000031188757409 -7.053735770375778e-06 6.520284188207355e-06)
(1.000039368536985 -7.206985627869618e-06 6.913599024553763e-06)
(1.000048253922605 -7.367514235655456e-06 7.358394587227179e-06)
(1.000057926679403 -7.522232722528761e-06 7.836590929521622e-06)
(1.000068438074816 -7.655824827607618e-06 8.324839653264293e-06)
(1.000079799646321 -7.750983561178555e-06 8.794057437127722e-06)
(1.000091973244256 -7.78885831528181e-06 9.209384790411524e-06)
(1.000003218749827 -2.251936186944964e-06 5.721880059710154e-06)
(1.000009728164866 -2.26512372169315e-06 5.810343101775933e-06)
(1.000016452178631 -2.290814654636896e-06 5.985354303204352e-06)
(1.000023529838549 -2.327627154455737e-06 6.242869107054821e-06)
(1.000031093494787 -2.3734576436995e-06 6.576295129733229e-06)
(1.000039264814243 -2.425452070095538e-06 6.97589700184878e-06)
(1.00004814957396 -2.479981669977251e-06 7.428071716694041e-06)
(1.000057831035877 -2.53263612646115e-06 7.914571802039407e-06)
(1.000068361862289 -2.578249823556465e-06 8.411792126440094e-06)
(1.000079754763749 -2.610979818822256e-06 8.890281497642136e-06)
(1.000091972385813 -2.624455160492304e-06 9.314684428902052e-06)
(1.000030881700711 -3.354483952114432e-05 0.0002652847534513535)
(1.000028619520168 -1.140634373021343e-05 0.0002705098799052983)
(1.000055782683839 -2.65120067294146e-05 0.0002217654737337482)
(1.000054354783397 -8.999414850691471e-06 0.0002257559737147212)
(1.000073022809525 -2.114166582960298e-05 0.0001834404236689529)
(1.00007213993635 -7.165675228234578e-06 0.0001864748182861956)
(1.000084774399998 -1.705984565255901e-05 0.0001498330665576349)
(1.000084246966747 -5.774603220018819e-06 0.0001521283611322914)
(1.000092353307508 -4.726244778294226e-06 0.0001220067526721033)
(1.000002153714958 -6.825575128740843e-05 0.0003010683772016261)
(0.9999954647979107 -4.271064897437594e-05 0.0003140579262031734)
(0.9999919281224164 -1.455161881832799e-05 0.0003208589819846649)
(1.000092649722931 -1.397867820295805e-05 0.0001202858663211168)
(1.000097823555477 -1.168127132388766e-05 9.409003175970995e-05)
(1.000097676319665 -3.945598572013951e-06 9.535906610679824e-05)
(1.000101136738125 -1.000745304085902e-05 7.055021234765759e-05)
(1.000101084590709 -3.377453237217701e-06 7.145662480864317e-05)
(1.000103176907576 -8.842050608107043e-06 4.901105824978585e-05)
(1.00010318364702 -2.982205964645761e-06 4.961766820103596e-05)
(1.000104337961262 -8.105953178883971e-06 2.886211224889092e-05)
(1.000104378603159 -2.73270400625319e-06 2.921040300231389e-05)
(1.000104861236601 -7.749764328487046e-06 9.530800260537357e-06)
(1.000104917328914 -2.612015260095542e-06 9.644348974056901e-06)
(1.000060506143739 -5.309479216194798e-05 0.0003964290604360529)
(1.000018616406501 -1.638947589715732e-05 0.0003641691359244467)
(1.000057312234834 -1.815240339976415e-05 0.0004067967926665343)
(1.000095271749305 -6.347156369096919e-05 0.0003063291522088964)
(1.000057215259877 -3.685055868977395e-05 0.0002941139360762086)
(1.000091872273746 -3.979696487886693e-05 0.0003204692200535985)
(1.000055069886072 -1.255003929541613e-05 0.0003004078615689692)
(1.000090107435807 -1.356912768619683e-05 0.0003278796566256657)
(1.000080422425471 -2.854082662783014e-05 0.0002413835419493207)
(1.000110901152908 -3.020231494145728e-05 0.000258049718031626)
(1.000079156637873 -9.700353076758945e-06 0.0002460560063755904)
(1.000109961356036 -1.027596295435326e-05 0.0002633915702516522)
(1.000095495168857 -2.235274727515609e-05 0.0001965595036180175)
(1.000121983810474 -2.323604530389846e-05 0.0002067929704426877)
(1.000094776127422 -7.58402920755327e-06 0.0002000291091654097)
(1.000121533877282 -7.891242520474163e-06 0.0002106679226279506)
(1.000105052754833 -1.774796747425975e-05 0.0001584388567536368)
(1.000128037061416 -1.815960973684134e-05 0.0001644760081838495)
(1.00010467401517 -6.012660922618561e-06 0.0001610115024573241)
(1.000127876208379 -6.157158166826472e-06 0.0001672938000524568)
(1.000110934224522 -1.433352223079296e-05 0.0001258063314185811)
(1.000130996524719 -1.446095469278232e-05 0.0001291722034962687)
(1.00011076648745 -4.84960746882531e-06 0.0001277032060763367)
(1.000131003474293 -4.896063513448301e-06 0.0001312161490874967)
(1.0001144182229 -1.182515079440878e-05 9.753693323464627e-05)
(1.000132142860065 -1.178318681335373e-05 9.926379335594842e-05)
(1.000114380293299 -3.996465662123332e-06 9.891665516439707e-05)
(1.000132245133188 -3.984507528235511e-06 0.0001007305781857427)
(1.000116383813096 -1.001951216363451e-05 7.262806588680062e-05)
(1.000132317924307 -9.87828879931429e-06 7.340668023195001e-05)
(1.000116424652278 -3.383075742918325e-06 7.36028325572194e-05)
(1.000132472861305 -3.336901447455007e-06 7.443189873980315e-05)
(1.000117424626285 -8.774003231098285e-06 5.019685985690924e-05)
(1.0001320678341 -8.576290259610088e-06 5.047931237088403e-05)
(1.000117511981784 -2.960359115451951e-06 5.084390859955492e-05)
(1.000132250757525 -2.894715466302944e-06 5.115441333314443e-05)
(1.000117927552117 -7.992525088211328e-06 2.946099751835435e-05)
(1.000131736448771 -7.76468130984923e-06 2.952870861817041e-05)
(1.00011804060356 -2.695306033463922e-06 2.983049089941363e-05)
(1.000131933265552 -2.619277372089526e-06 2.991216754303439e-05)
(1.000118124679424 -7.61588309545073e-06 9.71231845191472e-06)
(1.000131524556568 -7.375044217933204e-06 9.718669528028346e-06)
(1.000118249107953 -2.567611161446117e-06 9.832452377484046e-06)
(1.000131727022454 -2.4871029758401e-06 9.843011750977987e-06)
(1.000028933496411 -7.641705652937674e-05 0.0003396014716902271)
(1.000066714910482 -8.417109587672476e-05 0.0003768341478614464)
(1.000022189214225 -4.800785797811861e-05 0.0003556990201888816)
(1.000117458450489 -9.071739202468811e-05 0.0004091364435709893)
(1.000180783310197 -9.496228805825785e-05 0.0004299839206730261)
(1.000257657696345 -9.667938416431511e-05 0.0004405121850671778)
(1.000138011449502 -6.687165440037024e-05 0.0003253568859858067)
(1.000189135577735 -6.846345532656039e-05 0.0003354553388368645)
(1.000247396856464 -6.766365660119179e-05 0.0003334361770244601)
(1.00018936570727 -5.02336855067991e-05 0.0002615705748129396)
(1.000234181495764 -4.868105308261407e-05 0.0002550422300179218)
(1.000112575277701 -5.741053362574156e-05 0.0004325650368548258)
(1.00017839405003 -5.980975263867429e-05 0.0004580553013605711)
(1.000258502744051 -5.758766689777661e-05 0.0004721679494419483)
(1.000110743490012 -1.958701672944583e-05 0.000444956539954301)
(1.000180606176924 -1.998629896913673e-05 0.0004715838121694505)
(1.000258446871461 -1.737503805183872e-05 0.0004670156958495829)
(1.000135827859937 -4.201487218990306e-05 0.0003415547550506891)
(1.000188769900477 -4.295733650423854e-05 0.0003534202125228294)
(1.000249273937077 -4.208095494125651e-05 0.0003523503882807756)
(1.000134851077879 -1.431730922875907e-05 0.0003499706549738203)
(1.000189069494982 -1.454758803015008e-05 0.000362167821556806)
(1.000250113410626 -1.401849691092794e-05 0.0003589735918072003)
(1.000147578163474 -3.126403909615783e-05 0.0002697299196304706)
(1.000189861938811 -3.143385523875097e-05 0.0002737824959054115)
(1.00023629205073 -3.046001016778231e-05 0.0002675815988490361)
(1.000147166815396 -1.06417536253855e-05 0.0002756402081747649)
(1.000190169736196 -1.068845114736849e-05 0.000279984903590037)
(1.000237333107966 -1.033447360844044e-05 0.0002736196839281988)
(1.000152540334602 -2.364176616555676e-05 0.0002126908933506155)
(1.00018648780148 -2.339632791433091e-05 0.0002124962558807934)
(1.000222560815087 -2.234666324328686e-05 0.0002045311333070457)
(1.00015247769571 -8.034995830182895e-06 0.0002168937805094031)
(1.000186923150543 -7.95458654670822e-06 0.000216881550761354)
(1.000223569464304 -7.599887953735019e-06 0.0002089060494444626)
(1.000153636598556 -1.819614211017166e-05 0.0001669232394717732)
(1.000181194061839 -1.775033151842834e-05 0.0001646170893583234)
(1.000209661917631 -1.672928456020478e-05 0.0001565053518576704)
(1.000153767372755 -6.174163507010383e-06 0.000169925985161883)
(1.000181684600628 -6.026788052500144e-06 0.0001677090688150151)
(1.000210564734604 -5.683686451788741e-06 0.0001595613435566836)
(1.000152690201049 -1.429503185546188e-05 0.0001296714453178806)
(1.000175421180933 -1.376886174261781e-05 0.0001265379396808122)
(1.000198338453482 -1.282760606870756e-05 0.0001191183294704919)
(1.000152918823698 -4.843055410666536e-06 0.0001318160215015797)
(1.000175913091694 -4.667652308991819e-06 0.0001287155158122947)
(1.000199123987743 -4.351106777418577e-06 0.0001212420478749586)
(1.000150838296334 -1.151054100809898e-05 9.878087146651583e-05)
(1.000169983792259 -1.096529428106143e-05 9.558842399272215e-05)
(1.000188889440263 -1.011573177927542e-05 8.928493236866003e-05)
(1.000151111022387 -3.894428397520533e-06 0.0001002999056983674)
(1.000170452174435 -3.711875435843001e-06 9.711187553147601e-05)
(1.000189569829886 -3.425958780104531e-06 9.075318661344515e-05)
(1.00014878596253 -9.552480865072358e-06 7.255743799644114e-05)
(1.000165333919622 -9.01553349586426e-06 6.976060943752716e-05)
(1.000181395146868 -8.249382396319254e-06 6.477365017465482e-05)
(1.00014907478058 -3.228273224787093e-06 7.360812719374343e-05)
(1.00016577188827 -3.048108135314497e-06 7.080386036041658e-05)
(1.000181990565631 -2.790195192723088e-06 6.576962605963439e-05)
(1.000146965180837 -8.226060767659207e-06 4.96494708186431e-05)
(1.000161715299702 -7.705990924506726e-06 4.751199539413672e-05)
(1.000175839371921 -7.005855456508178e-06 4.392608452984281e-05)
(1.000147257062197 -2.777508652522746e-06 5.033594432285118e-05)
(1.00016212556151 -2.602819459945005e-06 4.818851659322414e-05)
(1.000176371851903 -2.367129218462645e-06 4.456743008974405e-05)
(1.000145633867576 -7.404475142615281e-06 2.89495672905079e-05)
(1.000159254131989 -6.899774474089834e-06 2.76185343222735e-05)
(1.000172174429251 -6.244592677469438e-06 2.546281072223731e-05)
(1.000145924194297 -2.498527419123629e-06 2.933745753680863e-05)
(1.000159644162532 -2.328914987320145e-06 2.799890033011537e-05)
(1.000172665666926 -2.108376962483762e-06 2.582173099468782e-05)
(1.000144936057961 -7.011549226278701e-06 9.512847517878056e-06)
(1.0001580114191 -6.515597385315982e-06 9.061765994251486e-06)
(1.000170355012737 -5.883055111595468e-06 8.342983312691668e-06)
(1.0001452246538 -2.365167788281642e-06 9.63829938913669e-06)
(1.00015839090694 -2.198462388970582e-06 9.184478801688327e-06)
(1.000170825898851 -1.985559686134897e-06 8.458510507516547e-06)
(1.00034152498132 -9.278516058245841e-05 0.0004175762301047161)
(1.000309311157294 -6.36745535826607e-05 0.0003133553293202441)
(1.000370499575722 -5.580187150814626e-05 0.0002758944837627409)
(1.000425436782126 -4.332506832699637e-05 0.0002175318275099983)
(1.000280400105691 -4.497026126341017e-05 0.0002363062841987332)
(1.000324783940135 -3.876458974944472e-05 0.0002044763546595634)
(1.000363371071652 -2.992241973298553e-05 0.0001590186397958278)
(1.000288399147598 -2.774697591350556e-05 0.000153205823683194)
(1.000316274151827 -2.132776824458699e-05 0.0001180483850517836)
(1.000426574473193 -8.329210755427815e-05 0.0003785814504662221)
(1.000505662282877 -6.620029437636131e-05 0.0003017217881212927)
(1.000181543363218 -5.116710490483146e-06 7.349004930380841e-06)
(1.000347025089986 -5.902057752342697e-05 0.000448660242871525)
(1.00043800955383 -5.318857570174978e-05 0.000405859415155068)
(1.000522701629305 -4.267034042419232e-05 0.0003243442774551014)
(1.000345924072516 -2.004256123251377e-05 0.0004661894369220103)
(1.000442924710293 -1.847541218507106e-05 0.000421844929649498)
(1.000529934785044 -1.512286902307841e-05 0.0003378195837632236)
(1.00031414154089 -4.024078234402788e-05 0.0003325115253623653)
(1.000379209761197 -3.545462392081692e-05 0.000293448887301741)
(1.000439599204493 -2.759004256543187e-05 0.0002318424790520478)
(1.000315937488316 -1.370803409132523e-05 0.0003422917614428755)
(1.000383150315503 -1.222102331735831e-05 0.0003029470251621228)
(1.000444723872357 -9.76392847466198e-06 0.0002399236018460957)
(1.00028445572997 -2.828224303939528e-05 0.0002486353155501914)
(1.000331071739066 -2.445144381024015e-05 0.000215568046047666)
(1.000371903116401 -1.888420651258453e-05 0.000167523317674651)
(1.000286408672048 -9.647097156696689e-06 0.0002549969817038919)
(1.000334181976658 -8.380128564258382e-06 0.0002214804665786787)
(1.000376023827222 -6.534238132528592e-06 0.0001724033619150647)
(1.000258889048904 -2.038619525272216e-05 0.0001874271995501143)
(1.000293046833051 -1.739164788784471e-05 0.0001604324580511533)
(1.000322154860419 -1.337183958020947e-05 0.0001236227469380468)
(1.000260551506517 -6.945562371889582e-06 0.0001916823579034521)
(1.000295413503272 -5.936299593923475e-06 0.000164240090555253)
(1.000325152604616 -4.577012631748154e-06 0.0001266446324979336)
(1.000237610983364 -1.506734646409673e-05 0.0001418146592974752)
(1.000263294115413 -1.273006141782449e-05 0.0001202303458026177)
(1.000284781044247 -9.752661604843472e-06 9.207608302374209e-05)
(1.000238961316454 -5.123595810677828e-06 0.0001446966029506764)
(1.000265094283004 -4.332479477715951e-06 0.0001227502916125602)
(1.00028697655939 -3.32208980771263e-06 9.403905877556249e-05)
(1.000220355159689 -1.143723045178224e-05 0.0001069831592610908)
(1.000240210982796 -9.592680173463575e-06 9.003939878179754e-05)
(1.000256583496702 -7.330705438058797e-06 6.863152619683105e-05)
(1.000221448191265 -3.881776965116534e-06 0.0001089513468877025)
(1.000241601460009 -3.257406676477066e-06 9.173556728711845e-05)
(1.000258230230705 -2.490337362373974e-06 6.994004556043708e-05)
(1.000206721276773 -8.946063546613317e-06 7.963834569790053e-05)
(1.000222554285418 -7.461872043357446e-06 6.665410918703196e-05)
(1.000235454552497 -5.6951724548421e-06 5.062797430672529e-05)
(1.000207617435978 -3.031187622177446e-06 8.09828264362855e-05)
(1.000223653706503 -2.529283011714447e-06 6.780121178099585e-05)
(1.000236726051109 -1.93105801755743e-06 5.15071619973048e-05)
(1.000196315091106 -7.248073614411764e-06 5.747554510445135e-05)
(1.000209394104761 -6.020941889512189e-06 4.790668575999705e-05)
(1.000219947039491 -4.594784298591935e-06 3.629595907756805e-05)
(1.000197066972577 -2.4524301641626e-06 5.837955694670669e-05)
(1.000210290314632 -2.037903875171192e-06 4.867237402618088e-05)
(1.000220963492804 -1.555679079020296e-06 3.687992392265088e-05)
(1.000188803988566 -6.12484046653962e-06 3.883180260479816e-05)
(1.000200055824072 -5.07338275539055e-06 3.227253342313999e-05)
(1.000209066132121 -3.87412646237401e-06 2.440858074543094e-05)
(1.000189455519896 -2.070110414734475e-06 3.941024988356603e-05)
(1.000200815268488 -1.715259069056017e-06 3.275991471291125e-05)
(1.000209914173181 -1.31023141678979e-06 2.477892822683046e-05)
(1.000183935860998 -5.440668645097001e-06 2.245567205623085e-05)
(1.000194072733558 -4.498601772274759e-06 1.862780823938505e-05)
(1.000202148032282 -3.438273424568971e-06 1.407360591279968e-05)
(1.000184524190675 -1.837468246664055e-06 2.277805486949564e-05)
(1.000194747885039 -1.519751544050118e-06 1.889851184367718e-05)
(1.000202893608229 -1.161945032733866e-06 1.427880397976699e-05)
(1.000191151797767 -4.22710891240421e-06 6.090735405194205e-06)
(1.000198785731705 -3.232767695188741e-06 4.599296409660799e-06)
(1.000182101184534 -1.727377077261872e-06 7.4525591974488e-06)
(1.000191786760219 -1.427462915498238e-06 6.177542657500765e-06)
(1.000199482821577 -1.092072041568462e-06 4.665017559038636e-06)