/*--------------------------------*- C++ -*----------------------------------*\
  =========                 |
  \\      /  F ield         | OpenFOAM: The Open Source CFD Toolbox
   \\    /   O peration     | Website:  https://openfoam.org
    \\  /    A nd           | Version:  7
     \\/     M anipulation  |
\*---------------------------------------------------------------------------*/
FoamFile
{
    version     2.0;
    format      ascii;
    class       volVectorField;
    location    "0";
    object      grad(Phi);
}
// * * * * * * * * * * * * * * * * * * * * * * * * * * * * * * * * * * * * * //

dimensions      [0 1 -1 0 0 0 0];

internalField   nonuniform List<vector> 
12671
(
(-1.000075908292258 -9.246531804496538e-05 -8.555422237974212e-05)
(-1.000067244533792 -7.91654611944638e-05 -7.049022631788391e-05)
(-1.000080130299786 -8.323581815528062e-05 -7.3753154445941e-05)
(-1.000059869142344 -6.687675738659134e-05 -5.889172892061124e-05)
(-1.00007099590658 -7.039018989685174e-05 -6.148275270675679e-05)
(-1.000083366689899 -7.354585215835218e-05 -6.374632901907693e-05)
(-1.000063033078228 -5.849654643474988e-05 -5.206821232104291e-05)
(-1.000073913628564 -6.124300075605022e-05 -5.389797105655895e-05)
(-1.000085783450773 -6.363270789222488e-05 -5.539929780508903e-05)
(-1.000055658622601 -4.75421418286716e-05 -4.496258790298943e-05)
(-1.000065502530751 -4.979350990597126e-05 -4.638982710190725e-05)
(-1.000076132068037 -5.18911352780373e-05 -4.763743859372553e-05)
(-1.000087539887935 -5.365624810593765e-05 -4.856736375965393e-05)
(-1.000048493058258 -3.74538880989485e-05 -3.970254153100349e-05)
(-1.000057624337769 -3.918435548433402e-05 -4.078888662653884e-05)
(-1.000067382071677 -4.089005777707641e-05 -4.178874714551644e-05)
(-1.000077776366764 -4.244746351478346e-05 -4.260052196005727e-05)
(-1.000088779311736 -4.371394581648158e-05 -4.311066817231954e-05)
(-1.000041307881994 -2.813301165094371e-05 -3.590996663631773e-05)
(-1.000049949785845 -2.935873416776149e-05 -3.672528190357135e-05)
(-1.00005909479228 -3.063150157256428e-05 -3.75137784235102e-05)
(-1.000068765638782 -3.187076180033428e-05 -3.819885136625221e-05)
(-1.000078955956076 -3.298140610885632e-05 -3.86938159023683e-05)
(-1.000089623767439 -3.385513153220102e-05 -3.890405272425075e-05)
(-1.000033988517997 -1.947252383205374e-05 -3.328545272933468e-05)
(-1.000042286854361 -2.024150209978261e-05 -3.389523994775544e-05)
(-1.00005099154818 -2.10841588934584e-05 -3.45187869701392e-05)
(-1.000060136365402 -2.19529662914831e-05 -3.509697696661757e-05)
(-1.000069731976214 -2.279039128749732e-05 -3.55617252406895e-05)
(-1.000079760736496 -2.352916523218334e-05 -3.583740133487179e-05)
(-1.000090171491416 -2.409348122212069e-05 -3.584311247659229e-05)
(-1.000026507467868 -1.136426249770386e-05 -3.160014253577388e-05)
(-1.000034549785722 -1.17506589898397e-05 -3.205795721077144e-05)
(-1.000042919517055 -1.220140446811508e-05 -3.256038865728776e-05)
(-1.000051661250037 -1.269353620347851e-05 -3.306113582662669e-05)
(-1.000060801024674 -1.319839735103303e-05 -3.350536784938015e-05)
(-1.000070341837723 -1.36815071991591e-05 -3.383070365732875e-05)
(-1.000080259046011 -1.41028120728137e-05 -3.396879595667147e-05)
(-1.000090496018308 -1.441748793151735e-05 -3.38476602259837e-05)
(-1.000018903397976 -2.466646572329957e-06 -3.068883327764892e-05)
(-1.000026735395107 -2.533645232283207e-06 -3.103134449905699e-05)
(-1.000034825659968 -2.618598065495724e-06 -3.144564411877148e-05)
(-1.000043229731574 -2.717561396359244e-06 -3.189559004241732e-05)
(-1.000051988541063 -2.825407745099521e-06 -3.233645938675908e-05)
(-1.000061124336397 -2.935755413879748e-06 -3.271558767892205e-05)
(-1.000070636390935 -3.040948894472643e-06 -3.297344846966489e-05)
(-1.000080496717228 -3.132124222204855e-06 -3.304530569420352e-05)
(-1.000090646136105 -3.199396372721625e-06 -3.28635522996158e-05)
(-1.000051117593262 -7.719646376802565e-05 -8.105001263662758e-05)
(-1.000062611391244 -8.207771227741752e-05 -8.632953564758188e-05)
(-1.000075986661069 -8.669677914041612e-05 -9.134651271814549e-05)
(-0.3333348611759804 -5.058851997308272e-05 -5.037722991342676e-05)
(-1.000006952697675 -5.127470593979669e-05 -5.105219505826038e-05)
(-1.000011847447905 -5.263580622028038e-05 -5.239102005965154e-05)
(-1.000017136991578 -5.464765249119112e-05 -5.436990164367406e-05)
(-1.000022989106885 -5.726993066312852e-05 -5.69491516587121e-05)
(-1.000029579275778 -6.044133369664788e-05 -6.00684387889144e-05)
(-1.000037089499208 -6.407322276080758e-05 -6.364055713678982e-05)
(-1.000045704084995 -6.804206917632166e-05 -6.754398176822169e-05)
(-1.000055601304735 -7.218123477592543e-05 -7.161475169736483e-05)
(-1.00006693975953 -7.627308100577343e-05 -7.563864432116033e-05)
(-1.000079838477293 -8.004297761732289e-05 -7.934518251339412e-05)
(-0.3333350765588843 -4.766853529991629e-05 -4.643972982778219e-05)
(-1.000007915895319 -4.827305265120436e-05 -4.699132119414231e-05)
(-1.00001343194006 -4.946965647123498e-05 -4.808258169771206e-05)
(-1.000019308897969 -5.123210768287478e-05 -4.968843465875532e-05)
(-1.000025695790313 -5.351763446537224e-05 -5.176821188441227e-05)
(-1.000032744284261 -5.626294055049998e-05 -5.426208276561826e-05)
(-1.000040606390607 -5.937912406173136e-05 -5.708650966965422e-05)
(-1.000049429588565 -6.274584652787842e-05 -6.01290371913483e-05)
(-1.000059348605092 -6.62053439670629e-05 -6.324294792337372e-05)
(-1.000070473134086 -6.955721853829636e-05 -6.624263552256196e-05)
(-1.000082871044682 -7.255537866579508e-05 -6.890093825810734e-05)
(-0.3333352641875489 -4.391685430515929e-05 -4.284042959165704e-05)
(-1.000008753818847 -4.44382032864787e-05 -4.328613218887727e-05)
(-1.000014806502938 -4.546808953076449e-05 -4.416543767743682e-05)
(-1.000021184969572 -4.697976458256639e-05 -4.545323242184215e-05)
(-1.000028019939752 -4.893034100961216e-05 -4.710959920515967e-05)
(-1.000035440765374 -5.125762706414983e-05 -4.907725505784923e-05)
(-1.000043572405185 -5.387621145214186e-05 -5.127839349902012e-05)
(-1.000052530304901 -5.667316158497472e-05 -5.361124497937913e-05)
(-1.000062412676745 -5.950390661269006e-05 -5.594683531311207e-05)
(-1.000073289794229 -6.218914198141652e-05 -5.812665117765911e-05)
(-1.000085190205988 -6.451389115325047e-05 -5.996216834479188e-05)
(-0.3333354241248732 -3.944438549785543e-05 -3.962398651006344e-05)
(-1.000009467130545 -3.988394609910628e-05 -3.998069093814273e-05)
(-1.000015973501357 -4.075059086838796e-05 -4.068226567428794e-05)
(-1.000022771149447 -4.201848043772215e-05 -4.170439319015548e-05)
(-1.000029973652794 -4.364669644907344e-05 -4.300902561119323e-05)
(-1.000037690154704 -4.557682377903664e-05 -4.454263958374416e-05)
(-1.000046021925128 -4.773005309921526e-05 -4.623418111624397e-05)
(-1.000055057283725 -5.00041551965147e-05 -4.799297886423734e-05)
(-1.000064864585488 -5.227084246905998e-05 -4.970703916262376e-05)
(-1.000075483118626 -5.437422650134134e-05 -5.124228721342655e-05)
(-1.000086912036872 -5.613127704973123e-05 -5.244345835501253e-05)
(-0.3333355572279481 -3.436115364907627e-05 -3.682385735194219e-05)
(-1.000010060024215 -3.472221618627823e-05 -3.710745312532065e-05)
(-1.000016941037276 -3.543281974760517e-05 -3.766334035729033e-05)
(-1.000024081075153 -3.646924795885917e-05 -3.846847885201587e-05)
(-1.000031578283094 -3.779430109140943e-05 -3.948727426933221e-05)
(-1.000039524122025 -3.935551880651649e-05 -4.067047985672446e-05)
(-1.000047999736603 -4.108312427986145e-05 -4.195398081336803e-05)
(-1.000057071094271 -4.288800485152681e-05 -4.325770748499924e-05)
(-1.00006678274805 -4.46601690309303e-05 -4.448501694016792e-05)
(-1.00007715022881 -4.626825479148181e-05 -4.552296491399068e-05)
(-1.000088151310572 -4.756078063183899e-05 -4.624398554202112e-05)
(-0.3333356648332302 -2.877373821519314e-05 -3.446416758706855e-05)
(-1.000010538796643 -2.906061173035818e-05 -3.468934263095205e-05)
(-1.000017720533129 -2.962430044739504e-05 -3.512903589261423e-05)
(-1.000025132630791 -3.044419594422373e-05 -3.576166817958446e-05)
(-1.000032859923642 -3.148821022325154e-05 -3.655425423522187e-05)
(-1.000040978977892 -3.271152198980336e-05 -3.746178977417062e-05)
(-1.000049554411173 -3.405518224353099e-05 -3.842665700873991e-05)
(-1.000058634328477 -3.54448442396739e-05 -3.937825401554217e-05)
(-1.000068244835428 -3.678997455880397e-05 -4.023310872724998e-05)
(-1.000078383730227 -3.798398856247344e-05 -4.089580317553221e-05)
(-1.000089013677137 -3.890581993304401e-05 -4.126105750346486e-05)
(-0.3333357484769583 -2.278385254772527e-05 -3.256160289154826e-05)
(-1.000010910586449 -2.30010946515868e-05 -3.274181708249073e-05)
(-1.000018324621489 -2.342737929517112e-05 -3.309223362039212e-05)
(-1.000025944984928 -2.404596504312905e-05 -3.359268943272349e-05)
(-1.000033845609139 -2.483092957783485e-05 -3.421262953785957e-05)
(-1.000042091094045 -2.574632714891213e-05 -3.491084848902153e-05)
(-1.000050733058853 -2.674529049562231e-05 -3.563533738621792e-05)
(-1.000059805886586 -2.77692864156797e-05 -3.632340110826249e-05)
(-1.000069321892373 -2.874779490191764e-05 -3.690225566776636e-05)
(-1.000079266074184 -2.959873720787003e-05 -3.729033608448785e-05)
(-1.000089590770911 -3.023001222479678e-05 -3.739955838750606e-05)
(-0.3333358096612994 -1.648790887864852e-05 -3.11271716626395e-05)
(-1.00001118232339 -1.663969769571955e-05 -3.127476125100739e-05)
(-1.000018765403521 -1.693722479600983e-05 -3.15604840867434e-05)
(-1.000026536181074 -1.736816774000617e-05 -3.19653744610289e-05)
(-1.000034560285748 -1.791352289837191e-05 -3.246088746526648e-05)
(-1.00004289333881 -1.854707738191396e-05 -3.300888351876681e-05)
(-1.00005157737044 -1.9234870844098e-05 -3.3561769805589e-05)
(-1.000060636832883 -1.99347950866624e-05 -3.406293952960886e-05)
(-1.00007007428622 -2.059651979102742e-05 -3.444766580398714e-05)
(-1.00007986594755 -2.116196585033589e-05 -3.464462543585568e-05)
(-1.000089957428433 -2.156656046281583e-05 -3.457821426540771e-05)
(-0.3333358496695016 -9.977386665749364e-06 -3.01677206565478e-05)
(-1.000011359902365 -1.006704048789329e-05 -3.029410338326915e-05)
(-1.000019053091534 -1.024264283655534e-05 -3.053781495630654e-05)
(-1.000026921283031 -1.049666011043729e-05 -3.088074955307228e-05)
(-1.000035024518781 -1.08175038340264e-05 -3.129578708477105e-05)
(-1.00004341244199 -1.118924469345466e-05 -3.174692609891701e-05)
(-1.000052120776557 -1.159133144268394e-05 -3.218960839433535e-05)
(-1.000061167535533 -1.199840302978935e-05 -3.257134675020365e-05)
(-1.000070549063137 -1.238030581784942e-05 -3.283278941340046e-05)
(-1.000080236114856 -1.270244250584084e-05 -3.290935311682358e-05)
(-1.00009017029565 -1.292658496510052e-05 -3.273353936264769e-05)
(-0.3333358694305157 -2.226543371897072e-06 -2.968712943737454e-05)
(-1.000011447579562 -2.246304386055416e-06 -2.980307553371597e-05)
(-1.000019195023143 -2.284994837786786e-06 -3.002612437619239e-05)
(-1.000027111042071 -2.340925458810249e-06 -3.033861850919934e-05)
(-1.000035252870331 -2.411500864774079e-06 -3.071417343925028e-05)
(-1.000043667166419 -2.493159825256456e-06 -3.111788460508074e-05)
(-1.000052386528776 -2.581317150251973e-06 -3.150673545471545e-05)
(-1.000061425807258 -2.670327971188123e-06 -3.183031424624678e-05)
(-1.000070778325696 -2.753498300478357e-06 -3.2031954643316e-05)
(-1.000080412226697 -2.823169677590463e-06 -3.205041364555067e-05)
(-1.00009026725394 -2.870906194995994e-06 -3.182217836264775e-05)
(-1.000080250904337 -7.443917584137874e-05 -8.248546876034062e-05)
(-0.333335080837954 -4.650100060521469e-05 -4.77101760725996e-05)
(-1.000007934985594 -4.70592961159257e-05 -4.830556766836587e-05)
(-1.000013463193268 -4.81637835401117e-05 -4.948396031141631e-05)
(-1.000019351425349 -4.978900504282187e-05 -5.121922319266452e-05)
(-1.000025748260863 -5.189367712077351e-05 -5.346881422970191e-05)
(-1.00003280483682 -5.441707574416194e-05 -5.616986737158913e-05)
(-1.000040672521733 -5.727444630565504e-05 -5.923421147750045e-05)
(-1.00004949802123 -6.035175786855953e-05 -6.254265491468821e-05)
(-1.000059415149856 -6.350035206059701e-05 -6.593911659983087e-05)
(-1.00007053256482 -6.653235565146098e-05 -6.922552668091371e-05)
(-1.000082917025362 -6.921811592564007e-05 -7.215884282308167e-05)
(-0.3333352563520837 -4.388739748550922e-05 -4.405374221775077e-05)
(-1.000008718539927 -4.438066131662311e-05 -4.454171425000346e-05)
(-1.000014747678969 -4.535456431753486e-05 -4.550509183129847e-05)
(-1.000021102695111 -4.678281279835151e-05 -4.691771362793916e-05)
(-1.000027914608112 -4.862340099887044e-05 -4.873781062997304e-05)
(-1.000035313315649 -5.081567722609039e-05 -5.090511407307619e-05)
(-1.000043424615311 -5.327672137056506e-05 -5.333728132908468e-05)
(-1.000052365105465 -5.589737653144414e-05 -5.592597546060012e-05)
(-1.000062234447875 -5.853847393888498e-05 -5.853312804894745e-05)
(-1.000073104595211 -6.102803972440904e-05 -6.098816258580621e-05)
(-1.000085005873943 -6.316055348065689e-05 -6.308723594139845e-05)
(-0.3333354096805093 -4.049424239660486e-05 -4.07051815324338e-05)
(-1.000009402152426 -4.092079918382999e-05 -4.110054934828409e-05)
(-1.00001586534475 -4.176136604661098e-05 -4.187898184100228e-05)
(-1.00002262026203 -4.299000802410179e-05 -4.301512129404835e-05)
(-1.000029781125291 -4.456577420031137e-05 -4.446910294177286e-05)
(-1.000037458157192 -4.643040593865801e-05 -4.618451578508588e-05)
(-1.000045754221038 -4.850559502855849e-05 -4.808597320143353e-05)
(-1.000054759773798 -5.069012943392798e-05 -5.007660502963619e-05)
(-1.000064545813049 -5.285742331295749e-05 -5.203592703358792e-05)
(-1.000075154644362 -5.485411486239011e-05 -5.381871581602775e-05)
(-1.000086588569565 -5.650060511586112e-05 -5.525569029741034e-05)
(-0.333335540723277 -3.642048536223186e-05 -3.770767878729072e-05)
(-1.000009985663578 -3.678102474191647e-05 -3.802488447074235e-05)
(-1.000016816887809 -3.749018218668339e-05 -3.864754539108396e-05)
(-1.000023907103265 -3.852346135424519e-05 -3.955163881833329e-05)
(-1.000031355006026 -3.984254093314399e-05 -4.069987770584501e-05)
(-1.000039253136477 -4.139355321042249e-05 -4.204035874438268e-05)
(-1.000047684338807 -4.310509832805566e-05 -4.350503335751704e-05)
(-1.000056716933749 -4.488630565768759e-05 -4.500827343632307e-05)
(-1.000066398433304 -4.662537740562917e-05 -4.644590858766147e-05)
(-1.000076747777014 -4.818918284010794e-05 -4.769522395771335e-05)
(-1.000087746313175 -4.942458998935515e-05 -4.8616505512482e-05)
(-0.333335650040094 -3.176586782815967e-05 -3.509411580752253e-05)
(-1.00001047184925 -3.20626853040907e-05 -3.534686045284239e-05)
(-1.000017607781363 -3.264549710690907e-05 -3.584130616167859e-05)
(-1.000024972620776 -3.34921675526623e-05 -3.655502802416298e-05)
(-1.000032651217147 -3.456832480130954e-05 -3.745359231986896e-05)
(-1.000040720714587 -3.582611939112476e-05 -3.848974045414988e-05)
(-1.000049246973486 -3.720285294095403e-05 -3.960254428355576e-05)
(-1.000058280052876 -3.861974823538019e-05 -4.071676130179189e-05)
(-1.000067848690231 -3.998122481219125e-05 -4.174269003336922e-05)
(-1.000077953856946 -4.117513395307528e-05 -4.257689537431213e-05)
(-1.000088561674207 -4.20744757954062e-05 -4.310421966980607e-05)
(-0.3333357386015938 -2.662849982160154e-05 -3.288866582935335e-05)
(-1.000010865292856 -2.686478680447023e-05 -3.308971637035154e-05)
(-1.000018246370058 -2.732802325233765e-05 -3.34815211550138e-05)
(-1.000025829930959 -2.799918227003317e-05 -3.404329162386957e-05)
(-1.000033688957865 -2.884889258547576e-05 -3.474339851513447e-05)
(-1.000041887664617 -2.983658202238026e-05 -3.553895866769468e-05)
(-1.000050477967651 -3.090957883511447e-05 -3.63754934188656e-05)
(-1.000059495305621 -3.200239530842804e-05 -3.718684454418492e-05)
(-1.000068953819021 -3.303648360208909e-05 -3.789558183281216e-05)
(-1.000078841027997 -3.392081222708408e-05 -3.841417360426896e-05)
(-1.000089112315027 -3.455364626359104e-05 -3.864720878944048e-05)
(-0.3333358075647517 -2.11034019641509e-05 -3.110843806167023e-05)
(-1.000011171372683 -2.128262284406546e-05 -3.12695812299976e-05)
(-1.000018742176828 -2.163351450379381e-05 -3.158226782845041e-05)
(-1.00002649349011 -2.214073565820486e-05 -3.202720770814914e-05)
(-1.0000344886169 -2.278071168237978e-05 -3.257527602752108e-05)
(-1.000042781400837 -2.352107302927553e-05 -3.31873915409239e-05)
(-1.000051412786772 -2.432010099306943e-05 -3.38145304704011e-05)
(-1.000060406957643 -2.512635442641908e-05 -3.439802615692791e-05)
(-1.00006976710715 -2.587869591552638e-05 -3.487033303081461e-05)
(-1.000079471019608 -2.650697202133418e-05 -3.515645385237875e-05)
(-1.000089466763507 -2.693361532135609e-05 -3.517622314883152e-05)
(-0.3333358580821804 -1.528189728139401e-05 -2.976502898751127e-05)
(-1.000011395405394 -1.540727455617849e-05 -2.989714142148471e-05)
(-1.000019104482872 -1.565248811497005e-05 -3.015234414021228e-05)
(-1.000026977128138 -1.600630223697051e-05 -3.05125753494882e-05)
(-1.000035069295236 -1.645150843421208e-05 -3.095073103960906e-05)
(-1.000043427053928 -1.69645824814601e-05 -3.143074231079993e-05)
(-1.000052083249048 -1.751536815186573e-05 -3.190782800533633e-05)
(-1.000061053900543 -1.806690999206507e-05 -3.232904270872898e-05)
(-1.000070334436616 -1.857558695261833e-05 -3.2634260372102e-05)
(-1.000079895947403 -1.89917185871025e-05 -3.275773752024033e-05)
(-1.000089681756272 -1.926081866066022e-05 -3.263038557010536e-05)
(-0.3333358911496014 -9.251707720814275e-06 -2.886587097828018e-05)
(-1.000011541963518 -9.325823504102735e-06 -2.897907711424208e-05)
(-1.000019341204509 -9.470673107081451e-06 -2.919687744134907e-05)
(-1.000027292510429 -9.679408119023206e-06 -2.95020766317749e-05)
(-1.000035446897144 -9.9415623200372e-06 -2.98689818271042e-05)
(-1.000043845260554 -1.024286987894024e-05 -3.026360365454955e-05)
(-1.000052515114283 -1.05651077686452e-05 -3.064405323645659e-05)
(-1.000061467176443 -1.088603545040805e-05 -3.096123825806071e-05)
(-1.000070691915745 -1.11795206398925e-05 -3.115996980587632e-05)
(-1.000080156251316 -1.141594986142639e-05 -3.118059076810145e-05)
(-1.000089800692809 -1.156302217508738e-05 -3.09612151105995e-05)
(-0.3333359074927008 -2.065064903078471e-06 -2.841530164306116e-05)
(-1.000011614370778 -2.081408002396704e-06 -2.851919257386196e-05)
(-1.000019458067487 -2.1133364098702e-06 -2.871857495187202e-05)
(-1.000027448017351 -2.159316654370939e-06 -2.89967003111209e-05)
(-1.000035632756996 -2.217007691207577e-06 -2.932860003537663e-05)
(-1.000044050599376 -2.283223222043728e-06 -2.968134442319102e-05)
(-1.00005272641462 -2.353900239171487e-06 -3.001450845031614e-05)
(-1.000061668313414 -2.424090113528562e-06 -3.02809359317721e-05)
(-1.000070864351027 -2.487991553223886e-06 -3.04279014047589e-05)
(-1.000080279448938 -2.539046968230714e-06 -3.039876354941185e-05)
(-1.000089852814072 -2.570123301293131e-06 -3.013518079121731e-05)
(-0.3333352722797018 -4.275242031281939e-05 -4.413302619054765e-05)
(-1.000008789831351 -4.320094621501629e-05 -4.464644632827771e-05)
(-1.000014865162555 -4.408574789493962e-05 -4.566042298319365e-05)
(-1.000021264161707 -4.538140372822861e-05 -4.714813039792485e-05)
(-1.000028116559784 -4.704752273632102e-05 -4.906663145764274e-05)
(-1.00003555058007 -4.902617279745039e-05 -5.135379178727676e-05)
(-1.000043689886306 -5.123872567969204e-05 -5.392446969359055e-05)
(-1.000052648451015 -5.358243730446689e-05 -5.666634146046356e-05)
(-1.000062522850493 -5.592725802605611e-05 -5.943592673496304e-05)
(-1.000073381618833 -5.811358963647726e-05 -6.205563789174844e-05)
(-1.00008525158252 -5.99519507691327e-05 -6.431296865957337e-05)
(-0.3333354134919542 -4.041336238236325e-05 -4.081404831585446e-05)
(-1.000009419078848 -4.081071224826256e-05 -4.123598847265966e-05)
(-1.000015892796559 -4.159307162687759e-05 -4.206729037206923e-05)
(-1.00002265707101 -4.273500214502236e-05 -4.328197216501169e-05)
(-1.000029825597917 -4.419650491716003e-05 -4.483905290742328e-05)
(-1.000037508021771 -4.592096926447884e-05 -4.668030770240007e-05)
(-1.000045806568473 -4.783273441866214e-05 -4.872758469015389e-05)
(-1.000054811001239 -4.983458057550311e-05 -5.088001786217368e-05)
(-1.000064591584614 -5.180561191631126e-05 -5.301162577616966e-05)
(-1.000075189888689 -5.360016442823589e-05 -5.496997111034187e-05)
(-1.000086607540337 -5.504854212134975e-05 -5.657674205762405e-05)
(-0.333335537179615 -3.734414575218284e-05 -3.776923963793104e-05)
(-1.000009969540594 -3.76886295865297e-05 -3.811197811816279e-05)
(-1.000016789452452 -3.836563071768517e-05 -3.878544437986329e-05)
(-1.000023867594998 -3.935061567261748e-05 -3.976502460626919e-05)
(-1.000031302526904 -4.060533905247955e-05 -4.101237155328754e-05)
(-1.000039186809572 -4.207627333086004e-05 -4.247385492200351e-05)
(-1.000047603497617 -4.369281176730391e-05 -4.407878845612122e-05)
(-1.000056621328512 -4.536554163125926e-05 -4.573772767420981e-05)
(-1.000066288434345 -4.698500074207243e-05 -4.734124792688165e-05)
(-1.000076624549038 -4.842145554517761e-05 -4.875973675525616e-05)
(-1.000087611929523 -4.952634892330126e-05 -4.98448449338317e-05)
(-0.3333356431478439 -3.363292456937122e-05 -3.503924960405024e-05)
(-1.000010440563812 -3.392476831454162e-05 -3.531486400119335e-05)
(-1.000017554782645 -3.449728391480272e-05 -3.585482061799114e-05)
(-1.000024896779345 -3.532766955105518e-05 -3.66361734996054e-05)
(-1.000032551255575 -3.63806318763872e-05 -3.762355125341665e-05)
(-1.000040595494486 -3.760723504342433e-05 -3.876816356216694e-05)
(-1.000049095836773 -3.894364457712754e-05 -4.000673938117754e-05)
(-1.000058103190214 -4.031003133553312e-05 -4.126064533201858e-05)
(-1.000067647498528 -4.160998986169063e-05 -4.243551529940047e-05)
(-1.00007773123687 -4.273091247242157e-05 -4.342180108347881e-05)
(-1.000088322209721 -4.354582532828388e-05 -4.409671233202218e-05)
(-0.333335731742108 -2.937003308645103e-05 -3.265546971774037e-05)
(-1.00001083389994 -2.961079208230202e-05 -3.287551455434285e-05)
(-1.000018192353689 -3.008229464596111e-05 -3.330514033370904e-05)
(-1.000025750942959 -3.076417407887886e-05 -3.392316931526376e-05)
(-1.000033582092396 -3.162509050103064e-05 -3.469725613363272e-05)
(-1.000041749822273 -3.26219258699468e-05 -3.558332515463895e-05)
(-1.000050306293909 -3.369895791482961e-05 -3.652504658632476e-05)
(-1.000059287673797 -3.478723921324085e-05 -3.745355537140171e-05)
(-1.000068709315483 -3.580447346340781e-05 -3.828767245356493e-05)
(-1.000078560384504 -3.665573835398577e-05 -3.893493503695788e-05)
(-1.000088798222693 -3.723543759726035e-05 -3.929376568656555e-05)
(-0.3333358036538406 -2.464571483740133e-05 -3.064135889852264e-05)
(-1.000011152825373 -2.483771539241179e-05 -3.081668615260279e-05)
(-1.000018708164641 -2.52131536022659e-05 -3.11576694550699e-05)
(-1.0000264395752 -2.575466775978082e-05 -3.164483271027742e-05)
(-1.000034409007366 -2.64356683490341e-05 -3.224866767520352e-05)
(-1.0000426693619 -2.72198034725336e-05 -3.292939397241939e-05)
(-1.000051261150117 -2.806045365133515e-05 -3.36368287851266e-05)
(-1.000060208705762 -2.890043998249336e-05 -3.431053009356776e-05)
(-1.000069515997669 -2.967217623472954e-05 -3.488041283355431e-05)
(-1.000079162201003 -3.029853127189962e-05 -3.526806233189478e-05)
(-1.000089097321712 -3.069468067917756e-05 -3.538897038392481e-05)
(-0.3333358597424792 -1.954865724629322e-05 -2.901383730669837e-05)
(-1.000011401338706 -1.969449916883187e-05 -2.915453960328604e-05)
(-1.000019109306056 -1.997930310126955e-05 -2.942698169038318e-05)
(-1.000026973457706 -2.038915175894834e-05 -2.98131906062656e-05)
(-1.000035047228109 -2.090280969246922e-05 -3.02861210530699e-05)
(-1.000043374607575 -2.149138877927114e-05 -3.080964764838637e-05)
(-1.000051986930419 -2.211806560303842e-05 -3.133871193704139e-05)
(-1.000060899396381 -2.273799165752887e-05 -3.181975393206056e-05)
(-1.000070107406772 -2.329856910332496e-05 -3.219158042037209e-05)
(-1.000079582888949 -2.374028554941183e-05 -3.238683141459554e-05)
(-1.000089270891084 -2.399830246191396e-05 -3.233419510457217e-05)
(-0.3333359008817902 -1.416525011377342e-05 -2.778461897816376e-05)
(-1.000011583471228 -1.426738986154422e-05 -2.790007169460835e-05)
(-1.000019402817232 -1.446664189508345e-05 -2.8122587777593e-05)
(-1.000027363081791 -1.475285341090429e-05 -2.843540015570839e-05)
(-1.000035511244386 -1.511057533365437e-05 -2.881341630080714e-05)
(-1.00004388461781 -1.55188684995977e-05 -2.922336890967836e-05)
(-1.000052507752995 -1.595116228036976e-05 -2.962414801962351e-05)
(-1.000061389209263 -1.637526476283566e-05 -2.996741875173864e-05)
(-1.000070518291561 -1.675364359376987e-05 -3.019864185989341e-05)
(-1.000079861934362 -1.704410765590585e-05 -3.025861388392978e-05)
(-1.00008936199836 -1.720101642321833e-05 -3.008562592084945e-05)
(-0.3333359278356426 -8.579454770618618e-06 -2.696138184489531e-05)
(-1.000011702730486 -8.639879181426887e-06 -2.706036090984047e-05)
(-1.000019594769605 -8.757667605774371e-06 -2.725033084203927e-05)
(-1.000027617391144 -8.926646677842554e-06 -2.751536418131438e-05)
(-1.000035813243198 -9.137439579642794e-06 -2.783171777493447e-05)
(-1.000044215194522 -9.377368309859738e-06 -2.816808118249837e-05)
(-1.000052843326683 -9.630393332127325e-06 -2.848602107374046e-05)
(-1.000061701877694 -9.877149582226915e-06 -2.874070885375566e-05)
(-1.000070776249665 -1.009514831595827e-05 -2.888202532749693e-05)
(-1.000080030261778 -1.025921946462566e-05 -2.885613117942991e-05)
(-1.000089403901517 -1.034226572982359e-05 -2.860757024290705e-05)
(-0.3333359411647307 -1.915435973091438e-06 -2.654870207965367e-05)
(-1.00001176168406 -1.928765060554847e-06 -2.663955544249546e-05)
(-1.000019689584728 -1.954738356957368e-06 -2.681348008986925e-05)
(-1.000027742853765 -1.991975142168197e-06 -2.705497874634407e-05)
(-1.000035961966018 -2.038380103819321e-06 -2.734099660897942e-05)
(-1.000044377571563 -2.091123689318405e-06 -2.764121618305399e-05)
(-1.000053007534267 -2.146631464583558e-06 -2.791855461867324e-05)
(-1.000061853964247 -2.200595412560294e-06 -2.812994179475842e-05)
(-1.000070900361443 -2.248022499706751e-06 -2.822746201948145e-05)
(-1.000080109051776 -2.283336598019061e-06 -2.815993410720815e-05)
(-1.000089419161309 -2.300549164946377e-06 -2.787498177063084e-05)
(-0.3333354353423354 -3.939484035653255e-05 -3.976573893809522e-05)
(-1.000009516932273 -3.975121320509719e-05 -4.019811401630492e-05)
(-1.000016054223198 -4.045203455271803e-05 -4.105028007613683e-05)
(-1.000022879284126 -4.147281046718017e-05 -4.229620939778173e-05)
(-1.000030104124445 -4.277523734419478e-05 -4.389476955926525e-05)
(-1.000037836169279 -4.430547611455881e-05 -4.578738851351271e-05)
(-1.000046174805323 -4.599212763833901e-05 -4.789526844314975e-05)
(-1.000055206316022 -4.774419896103044e-05 -5.011649668595919e-05)
(-1.00006499692116 -4.944947733953599e-05 -5.232356350896127e-05)
(-1.000075583786814 -5.097387503827367e-05 -5.436198269854221e-05)
(-1.000086964144388 -5.216244964234586e-05 -5.605089779946423e-05)
(-0.3333355476917156 -3.729633284077497e-05 -3.682763489108189e-05)
(-1.00001001654063 -3.761281924186126e-05 -3.718386518875572e-05)
(-1.000016866733507 -3.823405076408551e-05 -3.788431724667477e-05)
(-1.000023973449166 -3.913602465699387e-05 -3.890433815707753e-05)
(-1.000031434312775 -4.028148895507402e-05 -4.020541649805042e-05)
(-1.000039340723567 -4.161859975848599e-05 -4.173351408656239e-05)
(-1.00004777431512 -4.307940866032902e-05 -4.341714952948597e-05)
(-1.000056802148019 -4.457845510996701e-05 -4.516554225001887e-05)
(-1.000066470470882 -4.601184231622932e-05 -4.686724651092492e-05)
(-1.000076797037074 -4.725728497589911e-05 -4.838983500630106e-05)
(-1.000087762206991 -4.817571105042448e-05 -4.958130586188732e-05)
(-0.333335646333267 -3.451320087366477e-05 -3.412793349310602e-05)
(-1.000010454650194 -3.47882059812399e-05 -3.441797078623224e-05)
(-1.000017577428613 -3.532702237274433e-05 -3.498677963581676e-05)
(-1.000024926722317 -3.610685940635959e-05 -3.581138075111499e-05)
(-1.000032586699547 -3.709257605866168e-05 -3.685623974124878e-05)
(-1.000040634088984 -3.823568522198794e-05 -3.807214564318924e-05)
(-1.000049134660675 -3.947329095854723e-05 -3.939499251118922e-05)
(-1.000058138749679 -4.072720788483878e-05 -4.074472721257411e-05)
(-1.000067675751026 -4.190359460487516e-05 -4.20248148005034e-05)
(-1.000077747655548 -4.289351019171057e-05 -4.3122658059931e-05)
(-1.000088321904212 -4.357486004291629e-05 -4.391147186730773e-05)
(-0.3333357310284519 -3.112408079841705e-05 -3.170378661379648e-05)
(-1.000010830362129 -3.135754462224583e-05 -3.193750688611462e-05)
(-1.000018185386933 -3.181415299602363e-05 -3.239450943704287e-05)
(-1.000025739002852 -3.247296837427525e-05 -3.305362374555443e-05)
(-1.000033563138591 -3.330188567707295e-05 -3.388240593803848e-05)
(-1.000041721438467 -3.425693309422341e-05 -3.483645219447132e-05)
(-1.000050265837783 -3.528157996290934e-05 -3.585872300849388e-05)
(-1.000059232451665 -3.630627005835062e-05 -3.687909580661085e-05)
(-1.000068636773189 -3.724845995112255e-05 -3.781442555607886e-05)
(-1.000078468302511 -3.801349534615617e-05 -3.856944515804427e-05)
(-1.000088684900253 -3.849668648325805e-05 -3.903886637966214e-05)
(-0.3333358019758146 -2.72109096011165e-05 -2.958423512940344e-05)
(-1.00001114472239 -2.740385824662185e-05 -2.977116386133092e-05)
(-1.000018692852365 -2.778059054531207e-05 -3.013542198145752e-05)
(-1.000026414454998 -2.832256459228685e-05 -3.065763706569039e-05)
(-1.000034370664267 -2.900148109530313e-05 -3.130835827722595e-05)
(-1.00004261378327 -2.977882231602902e-05 -3.204770484335665e-05)
(-1.000051183997639 -3.06054455379013e-05 -3.282509906793647e-05)
(-1.000060105629667 -3.142141459555613e-05 -3.357925894914752e-05)
(-1.000069382976314 -3.215629725827917e-05 -3.423866780861736e-05)
(-1.00007899588208 -3.273019024607749e-05 -3.472276660754987e-05)
(-1.000088895335363 -3.305574306344822e-05 -3.494412168103912e-05)
(-0.333335859660887 -2.285680910940616e-05 -2.779128181506438e-05)
(-1.000011400043074 -2.301091989087571e-05 -2.79404337801442e-05)