/*--------------------------------*- C++ -*----------------------------------*\
  =========                 |
  \\      /  F ield         | OpenFOAM: The Open Source CFD Toolbox
   \\    /   O peration     | Website:  https://openfoam.org
    \\  /    A nd           | Version:  7
     \\/     M anipulation  |
\*---------------------------------------------------------------------------*/
FoamFile
{
    version     2.0;
    format      ascii;
    class       volScalarField;
    location    "0";
    object      mag(grad(Phi));
}
// * * * * * * * * * * * * * * * * * * * * * * * * * * * * * * * * * * * * * //

dimensions      [0 1 -1 0 0 0 0];

internalField   nonuniform List<scalar> 
12671
(
1.000075916226336
1.000067250151436
1.000080136483156
1.000059873112474
1.000071000273724
1.000083371425798
1.000063036144507
1.000073916956167
1.000085787009569
1.000055660763427
1.000065504846305
1.000076134548856
1.000087542506596
1.000048494547729
1.000057625937251
1.00006738378071
1.000077778174919
1.000088781196288
1.000041308922447
1.00004995089113
1.000059095964997
1.000068766876146
1.000078957248467
1.000089625097168
1.000033989261522
1.000042287633631
1.000050992366183
1.000060137222216
1.00006973286817
1.000079761655393
1.000090172423944
1.00002650803171
1.000034550368597
1.000042920121556
1.000051661877087
1.000060801673038
1.000070342503526
1.000080259722341
1.00009049669501
1.000018903871911
1.000026735879776
1.000034826157794
1.000043230243909
1.00005198906785
1.000061124875829
1.000070636939144
1.000080497268085
1.000090646681181
1.000051123857141
1.00006261848557
1.000075994590725
0.3333348688215408
1.000006955315368
1.000011850205546
1.000017139962753
1.000022992368335
1.000029582906357
1.000037093576806
1.000045708680741
1.000055606473849
1.000066945528537
1.000079844828054
0.3333350832022562
1.000007918164537
1.000013434319619
1.000019311444754
1.000025698562284
1.000032747339107
1.000040609782844
1.000049433364649
1.000059352796252
1.000070477746907
1.000082876050079
0.3333352698335049
1.000008755743052
1.000014808511874
1.000021187106074
1.000028022246434
1.000035443283246
1.000043575171125
1.000052533347747
1.000062416011919
1.000073293417062
1.00008519408441
0.3333354288137235
1.000009468725122
1.000015975159159
1.000022772901812
1.000029975530143
1.000037692185274
1.000046024132905
1.000055059685464
1.000064867186835
1.00007548590958
1.000086914987134
0.3333355610329507
1.0000100613155
1.000016942374259
1.000024082480034
1.000031579776874
1.000039525723434
1.0000480014605
1.00005707294947
1.000066784734641
1.000077152335193
1.000088153510645
0.3333356678567694
1.000010539820567
1.000017721588934
1.000025133733637
1.000032861087464
1.000040980214556
1.000049555729289
1.000058635731886
1.000068246321429
1.00007838528773
1.000089015285062
0.333335750845984
1.000010911386979
1.000018325443443
1.000025945838245
1.000033846502649
1.000042092034826
1.000050734051396
1.000059806931785
1.000069322986403
1.000079267207421
1.000089591927098
0.3333358115224135
1.000011182950878
1.000018766044976
1.000026536842776
1.000034560973026
1.00004289405557
1.000051578118588
1.000060637611676
1.000070075091593
1.000079866771524
1.000089958258743
0.3333358511839495
1.000011360411899
1.000019053610259
1.000026921814917
1.000035025066985
1.000043413008499
1.000052121361792
1.000061168137923
1.000070549678725
1.000080236736994
1.000090170914885
0.3333358707599303
1.000011448026191
1.000019195476529
1.000027111505015
1.000035253344902
1.000043667653667
1.000052387028419
1.000061426317376
1.000070778842474
1.000080412744255
1.00009026776434
1.000080257076364
0.333335087495825
1.000007937259578
1.000013465577442
1.000019353976476
1.000025751036726
1.000032807894856
1.000040675916122
1.000049501798002
1.000059419339738
1.000070537173859
1.00008292202397
0.3333352621523039
1.000008720516714
1.000014749742813
1.000021104890017
1.00002791697785
1.000035315902339
1.000043427456825
1.000052368231417
1.000062237874102
1.000073108316927
1.000085009858232
0.3333354146255217
1.000009403834294
1.000015867093653
1.000022622111209
1.000029783107037
1.000037460301508
1.000045756553458
1.000054762312237
1.000064548563694
1.000075157596855
1.000086591692049
0.3333355448457309
1.000009987062931
1.000016818337358
1.000023908627423
1.00003135662793
1.000039254876818
1.000047686214086
1.000056718953897
1.000066400598734
1.000076750075353
1.000087748716141
0.3333356534010716
1.000010472987947
1.000017608956506
1.000024973849743
1.000032652515975
1.000040722097016
1.00004924844962
1.000058281627454
1.000067850360594
1.000077955610901
1.000088563488164
0.3333357412876864
1.000010866201169
1.000018247303957
1.000025830902384
1.000033689977512
1.000041888741191
1.000050479106883
1.000059496509057
1.000068955082676
1.000078842341028
1.000089113658688
0.3333358096843687
1.000011172088043
1.000018742909538
1.000026494248067
1.000034489406927
1.000042782228123
1.000051413654172
1.000060407864867
1.000069768049908
1.000079471988829
1.000089467744812
0.3333358597614076
1.000011395970999
1.000019105059943
1.000026977721731
1.000035069909514
1.000043427691744
1.000052083911463
1.000061054586292
1.00007033514159
1.000079896664223
1.000089682474068
0.3333358925278397
1.000011542426892
1.000019341675575
1.000027292992448
1.000035447392622
1.000043845770933
1.000052515639595
1.000061467714962
1.000070692463669
1.000080156802548
1.00008980123891
0.3333359087102322
1.000011614779612
1.00001945848209
1.000027448440075
1.000035633189521
1.000044051042455
1.000052726867802
1.000061668774791
1.000070864817018
1.000080279914167
1.000089853271398
0.333335277942909
1.000008791761147
1.000014867176739
1.000021266302871
1.000028118870221
1.00003555310037
1.000043692652812
1.000052651491931
1.000062526180528
1.000073385232613
1.000085255447388
0.3333354184404628
1.000009420761792
1.000015894546351
1.000022658920773
1.000029827579793
1.000037510165584
1.00004580889954
1.000054813537231
1.000064594331464
1.000075192835805
1.000086610655702
0.333335541411238
1.000009970977058
1.000016790940543
1.000023869159824
1.000031304192256
1.000039188596722
1.000047605423526
1.000056623403381
1.00006629065859
1.000076626909932
1.000087614397991
0.3333356466862033
1.000010441762814
1.000017556020439
1.000024898074439
1.000032552625072
1.000040596953064
1.00004909739527
1.000058104853787
1.000067649264491
1.000077733092417
1.000088324129931
0.333335734635555
1.000010834878729
1.000018193360759
1.00002575199154
1.000033583194382
1.000041750987406
1.000050307528697
1.00005928898018
1.000068710689341
1.000078561814178
1.000088799687802
0.3333358059732797
1.000011153608654
1.000018708967878
1.000026440407527
1.000034409876747
1.000042670274492
1.00005126210948
1.000060209711926
1.000069517046137
1.000079163281836
1.000089098418885
0.3333358615783944
1.000011401957629
1.000019109938604
1.000026974109961
1.000035047905173
1.000043375313102
1.000051987666043
1.000060900161091
1.000070108196277
1.000079583695139
1.000089271701721
0.333335902340738
1.000011583962208
1.000019403317304
1.000027363594887
1.000035511773639
1.000043885165207
1.00005250831898
1.000061389792325
1.00007051888784
1.000079862537357
1.000089362598817
0.333335929036418
1.000011703133937
1.000019595179236
1.000027617809523
1.000035813672231
1.00004421563519
1.000052843778758
1.000061702339459
1.000070776717674
1.000080030730705
1.000089404364153
0.3333359422274761
1.000011762040749
1.000019689946113
1.000027743221725
1.000035962341847
1.00004437795575
1.000053007926273
1.00006185436229
1.000070900762336
1.000080109450842
1.000089419552427
0.3333354400422069
1.000009518530281
1.000016055883917
1.000022881038567
1.000030106002624
1.000037838198932
1.000046177009838
1.000055208711476
1.000064999512495
1.000075586563385
1.000086967075446
0.3333355518126249
1.000010017939298
1.000016868182015
1.000023974971717
1.000031435932262
1.000039342460395
1.000047776185473
1.000056804161487
1.000066472627553
1.000076799324312
1.000087764596383
0.3333356498670578
1.000010455847589
1.000017578664628
1.000024928015365
1.000032588066623
1.000040635544653
1.000049136215652
1.000058140409001
1.000067677511905
1.000077749505113
1.000088323817536
0.3333357339891884
1.000010831363768
1.000018186417686
1.000025740076342
1.00003356426707
1.000041722631975
1.000050267103038
1.000059233790692
1.000068638181782
1.00007846976871
1.000088686403134
0.3333358043992876
1.000011145541028
1.000018693692302
1.000026415326004
1.000034371574885
1.000042614740146
1.000051185004677
1.000060106687039
1.000069384079394
1.000078997020458
1.000088896492147
0.3333358616030559
1.000011400698151
1.000019104763439
1.000026960585418
1.000035020115918
1.000043326154277
1.000051909215203
1.000060784121437
1.000069946395365
1.000079368614691
1.000088997005324
0.3333359062509413
1.000011599789054
1.000019424878253
1.000027383855062
1.000035521222283
1.000043872165846
1.000052459571662
1.000061290909529
1.000070355077697
1.000079619377552
1.000089026872232
0.3333359390151022
1.000011745853269
1.000019659345905
1.000027693054685
1.000035885843452
1.000044267191525
1.000052854336769
1.000061649388651
1.000070636516766
1.000079779383482
1.000089019055926
0.3333359604887351
1.000011841566729
1.00001981279725
1.000027895007213
1.000036123279561
1.000044523294604
1.000053108564029
1.000061877701538
1.000070811841928
1.000079872375279
1.000088999217163
0.3333359711037829
1.000011888900037
1.000019888625854
1.000027994677316
1.000036240241048
1.000044649100299
1.000053232916281
1.000061988578955
1.000070895741717
1.000079914704972
1.000088984862211
0.3333355746282449
1.000010121539556
1.000017039525588
1.000024211642676
1.000031733913914
1.000039695549658
1.000048175321221
1.000057236743419
1.000066921932669
1.000077244159525
1.000088179351304
0.3333356628091174
1.000010514634205
1.000017675885307
1.000025062290061
1.000032757108068
1.000040835834025
1.000049362635556
1.00005838587888
1.000067932687074
1.000078002616231
1.000088560738199
0.3333357403222352
1.000010860033561
1.000018233628783
1.000025804864305
1.000033645128939
1.000041817389963
1.000050372755087
1.000059346370057
1.000068752654572
1.000078580004543
1.000088785257354
0.3333358069397591
1.000011156770596
1.000018711597268
1.000026438682314
1.000034398663107
1.000042643346858
1.000051212434248
1.000060129791469
1.000069399314923
1.000079000539987
1.00008888428222
0.3333358627844663
1.000011405437452
1.000019111167586
1.000026966473267
1.000035022537294
1.000043321496962
1.000051893345813
1.000060752560599
1.000069894525699
1.000079291916905
1.000088891314268
0.3333359082134289
1.000011607664543
1.000019435378225
1.000027393145937
1.000035524124816
1.000043862348589
1.000052429805321
1.000061233382123
1.000070261766899
1.000079482470806
1.00008883921864
0.3333359437078604
1.000011765628305
1.000019688109669
1.000027724644921
1.00003591188749
1.000044277374763
1.000052836764225
1.000061591045437
1.000070523828488
1.000079598869729
1.000088758059412
0.3333359697754975
1.000011881615937
1.000019873363799
1.000027966953857
1.000036194119718
1.000044577526469
1.000053128135576
1.000061842624295
1.000070700965916
1.000079664326813
1.000088673486102
0.3333359868696464
1.000011957665006
1.000019994670112
1.000028125280119
1.000036377931202
1.000044772043029
1.000053315474307
1.000062002083442
1.000070809503695
1.000079697284513
1.000088605590807
0.3333359953220917
1.000011995286441
1.000020054632245
1.000028203436415
1.000036468481618
1.000044867566294
1.000053407006747
1.0000620792694
1.000070860843433
1.000079710503033
1.000088568144077
0.3333356831223362
1.000010607358959
1.000017830054703
1.000025276906416
1.000033030138371
1.00004116362294
1.000049739231179
1.000058802345388
1.000068376505049
1.000078457297934
1.000089005804162
0.3333357524724589
1.000010915657194
1.000018326444446
1.000025934754891
1.000033811523978
1.000042018890844
1.000050606704739
1.000059608413083
1.000069036349632
1.000078876565661
1.000089083510113
0.3333358135292768
1.000011186999995
1.000018762201888
1.000026509835438
1.000034490374617
1.000042755248846
1.000051343534913
1.000060278223007
1.000069562109432
1.00007917347506
1.000089061842012
0.3333358660752843
1.000011420450531
1.000019136133665
1.000027001239928
1.000035066792271
1.000043374678885
1.000051954544512
1.000060820419551
1.000069967162498
1.000079366880632
1.000088965599731
0.3333359101739401
1.000011616318738
1.00001944907056
1.000027410778051
1.000035544167056
1.000043882854015
1.000052448435822
1.000061247452255
1.000070268311303
1.000079478340584
1.00008882121081
0.3333359460799553
1.000011775761103
1.000019703197833
1.000027742035613
1.000035927964462
1.000044287663028
1.000052836073303
1.000061573655103
1.000070483719208
1.000079529997007
1.000088654667003
0.3333359741530822
1.000011900396312
1.000019901415874
1.000027999484272
1.000036224593108
1.000044597853917
1.00005312893288
1.000061813547396
1.00007063112769
1.000079542793845
1.000088489845944
0.3333359947803893
1.000011991960112
1.000020046769607
1.000028187692965
1.000036440412406
1.000044821860147
1.000053337780286
1.000061980411443
1.00007072639508
1.000079535052981
1.000088347213078
0.3333360083112736
1.000012052016191
1.000020141972085
1.000028310674135
1.000036580916506
1.000044966845526
1.00005347160954
1.000062085167593
1.000070782362181
1.000079521394189
1.000088242866313
0.3333360150025242
1.000012081731554
1.000020189036871
1.000028371381928
1.000036650112713
1.000045037983123
1.000053536849843
1.000062135544493
1.000070808028586
1.000079511966231
1.00008818787451
0.3333357672042898
1.00001098367809
1.000018441076427
1.000026097477717
1.000034023804237
1.000042281615312
1.000050919515502
1.000059969004129
1.000069439806847
1.000079314853292
1.000089545222468
0.3333358220821533
1.000011226852562
1.000018830206247
1.000026608078631
1.000034621351171
1.000042921457165
1.0000515469981
1.000060519971454
1.000069841676691
1.000079488471776
1.000089407682297
0.3333358704521169
1.000011441138204
1.000019172169916
1.00002705477299
1.000035140542843
1.000043471666188
1.000052077756219
1.00006097244701
1.00007014983098
1.000079580912588
1.000089210355224
0.3333359121175552
1.000011625681171
1.000019465852598
1.000027436638997
1.000035581257773
1.00004393365088
1.000052515538199
1.000061333354326
1.000070375163775
1.000079607722446
1.000088973934802
0.3333359471086352
1.000011780631447
1.000019711765802
1.000027754931459
1.000035945996468
1.000044311746956
1.000052867147272
1.000061612585233
1.000070531203267
1.000079586475053
1.000088720249315
0.3333359756124379
1.000011906832159
1.000019911528297
1.000028012354081
1.000036238947675
1.000044612085867
1.000053141130278
1.000061821539153
1.000070632547949
1.000079535168448
1.000088470702557
0.3333359979045016
1.000012005515772
1.000020067361873
1.00002821235875
1.000036465099503
1.000044841532787
1.000053346566605
1.000061971799008
1.000070693479016
1.000079470837711
1.00008824496398
0.3333360142864811
1.000012078027716
1.000020181634567
1.000028358515254
1.000036629447311
1.000045006750802
1.000053492015394
1.00006207399821
1.000070726794801
1.000079408415057
1.000088059921474
0.33333602503317
1.000012125591908
1.000020256474824
1.000028453981823
1.000036736333043
1.000045113427634
1.000053584655355
1.000062136907098
1.000070742885648
1.00007935984268
1.000087928887336
0.3333360303471909
1.000012149126916
1.000020293470481
1.000028501094342
1.000036788936096
1.00004516568423
1.000053629632636
1.000062166747791
1.000070749049359
1.000079333426876
1.000087861032192
0.333335828537409
1.000011258073434
1.00001888580538
1.000026693035229
1.000034742080095
1.000043085269509
1.000051761439608
1.000060792073972
1.000070177175058
1.000079891057084
1.000089878377979
0.3333358729291409
1.000011454088072
1.000019197401905
1.000027097489093
1.000035207595587
1.000043571135101
1.00005221841892
1.00006116316506
1.000070398882513
1.000079895316989
1.000089595246872
0.3333359120831789
1.000011626947535
1.000019471379696
1.000027451358652
1.000035611749202
1.000043987815404
1.000052602185565
1.000061461710372
1.00007055431727
1.000079846038414
1.000089278470883
0.3333359458255654
1.000011775893022
1.000019706742098
1.000027753804213
1.000035954386644
1.000044336477794
1.000052915937891
1.000061693678289
1.000070652935111
1.000079756803768
1.000088946263168
0.3333359741696761
1.000011900992394
1.000019903828314
1.00002800576718
1.000036237487915
1.000044620655551
1.000053165320176
1.000061867381881
1.000070706228005
1.000079642696563
1.000088617566863
0.3333359972601266
1.000012002891924
1.000020063899548
1.000028209391341
1.000036464427304
1.000044845354799
1.000053357391296
1.000061992334243
1.000070726502551
1.000079519051763
1.000088310839331
0.3333360153170012
1.000012082569743
1.000020188730375
1.000028367456263
1.000036639256283
1.000045016199731
1.000053499652773
1.000062078188112
1.000070725770019
1.000079400346176
1.00008804300193
0.3333360285844024
1.000012141108606
1.000020280233635
1.000028482860364
1.000036766054776
1.000045138667369
1.000053599188634
1.00006213381053
1.000070714793997
1.000079299264786
1.000087828577861
0.3333360372863103
1.000012179501082
1.000020340140036
1.000028558181433
1.000036848383152
1.000045217446333
1.000053661951925
1.000062166524284
1.000070702320045
1.000079225958209
1.00008767902112
0.3333360415881898
1.000012198495375
1.000020369745782
1.000028595332435
1.000036888855556
1.00004525594084
1.000053692217014
1.000062181530866
1.000070694496525
1.00007918749218
1.000087602228304
0.3333358685519573
1.000011437041004
1.000019175476614
1.000027080119061
1.000035207496655
1.00004360379894
1.000052301447766
1.000061315449301
1.00007063963519
1.000080242996073
1.000090066415601
0.3333359061359066
1.000011602451309
1.000019436825036
1.000027415920623
1.000035587855364
1.000043990709336
1.000052649345136
1.000061572116066
1.000070747574948
1.000080141374777
1.000089693636996
0.3333359392954365
1.000011748375099
1.00001966665219
1.000027709622204
1.000035917633982
1.000044321347056
1.000052938793344
1.000061772418977
1.000070806219385
1.000080003145178
1.000089303022569
0.3333359678749512
1.000011874132063
1.000019864067339
1.000027960481027
1.000036196717588
1.000044596803913
1.000053172738797
1.000061921838957
1.000070824252924
1.000079840806258
1.000088911391567
0.3333359918804545
1.000011979753002
1.000020029326161
1.000028169277237
1.000036426806953
1.000044820170514
1.000053356174277
1.000062027790484
1.000070811998803
1.000079668003573
1.000088536012979
0.3333360114321763
1.000012065771013
1.000020163483214
1.000028337829159
1.000036610800337
1.000044995792359
1.000053495282513
1.000062098673709
1.000070780409786
1.000079498498042
1.000088193601671
0.3333360267168759
1.000012133011484
1.00002026804435
1.000028468512053
1.00003675218561
1.000045128546798
1.000053596615639
1.000062142980821
1.000070740133851
1.000079345231861
1.000087899432371
0.3333360379434431
1.000012182396518
1.000020344644055
1.000028563813928
1.000036854483545
1.000045223187169
1.000053666358908
1.000062168504455
1.000070700699128
1.000079219528095
1.000087666597533
0.3333360453044559
1.000012214775768
1.000020394767436
1.000028625954533
1.00003692077297
1.000045283787389
1.000053709712565
1.000062181680028
1.00007066984507
1.000079130443832
1.000087505419378
0.333336048942285
1.000012230791602
1.000020419529644
1.000028656584499
1.00003695331786
1.0000453133084
1.000053730412847
1.000062187080277
1.000070653013428
1.000079084283862
1.000087423014472
0.3333358882772818
1.000011525287921
1.000019318192013
1.00002727057471
1.000035436056194
1.000043857762186
1.00005256493907
1.000061569416275
1.000070862034877
1.000080409249829
1.000090150207774
0.3333359225149998
1.000011675653729
1.00001955485946
1.000027572697646
1.00003577471122
1.000044196318864
1.000052859683987
1.00006177052565
1.000070914990956
1.000080256781429
1.000089734801439
0.3333359527245801
1.000011808320604
1.000019762973259
1.000027836842785
1.000036068012361
1.000044484843658
1.000053103089825
1.00006192303126
1.000070926751704
1.000080075731336
1.00008930899249
0.333335978760532
1.000011922651901
1.000019941703585
1.000028062327976
1.000036315882087
1.000044724415211
1.000053298009988
1.000062032213016
1.000070905669189
1.000079878120686
1.000088888975995
0.3333360006263369
1.000012018665102
1.000020091273556
1.000028249866818
1.000036519901464
1.000044917929789
1.000053449146767
1.000062105080663
1.000070861536663
1.000079676939661
1.000088491254848
0.3333360184311917
1.000012096842119
1.000020212643895
1.000028401129109
1.000036682750586
1.000045069428983
1.000053562278808
1.000062149520131
1.000070804680575
1.00007948522041
1.000088131736408
0.3333360323463322
1.00001215793703
1.00002030719486
1.000028518301064
1.000036807653608
1.000045183440567
1.000053643513888
1.000062173480555
1.000070745111232
1.000079315187642
1.000087824925848
0.3333360425639803
1.000012202795954
1.000020376429342
1.000028603676647
1.000036897867057
1.000045264376094
1.000053698612996
1.000062184247851
1.000070691774732
1.00007917752348
1.000087583242919
0.3333360492617814
1.000012232200505
1.000020421715542
1.000028659305286
1.00003695624082
1.00004531601748
1.000053732419193
1.000062187836851
1.000070651934206
1.00007908076794
1.000087416475127
0.3333360525710737
1.00001224674247
1.000020444082101
1.000028686712375
1.000036984871845
1.000045341114408
1.00005374841253
1.000062188521355
1.000070630695912
1.000079030864946
1.000087331369721
1.000086913796248
1.000091357609026
1.000094663908321
1.000097030343047
1.000098652118535
1.000099708489991
1.000100355334339
1.000100721867445
1.00010090989424
1.000100994375869
1.000101024459544
1.000091420963743
1.000094405393245
1.00009659752309
1.000098130413201
1.000099140374883
1.000099756164212
1.000100092341311
1.000100245679879
1.000100293599937
1.000100293790891
1.000100284400913
1.000096622549057
1.000097956620469
1.000098839814945
1.000099367826043
1.000099633377322
1.000099720715813
1.000099702256956
1.000099636762549
1.00009956850808
1.000099527006741
1.000098836155217
1.000099225337511
1.000099383423197
1.00009937799463
1.000099271551967
1.000099118633023
1.000098964049394
1.000098841900938
1.000098775081476
1.000099242372823
1.000099032706621
1.000098779443626
1.000098524257135
1.000098301739509
1.000098138432201
1.000098052262827
1.00009864110518
1.000098279641891
1.000097948897984
1.000097676120262
1.000097482345841
1.0000973818518
1.000097805727526
1.000097420862451
1.000097112079824
1.000096896490839
1.000096785746683
1.000096965567076
1.000096631941025
1.000096401322713
1.000096283525808
1.000096254544346
1.000096014098892
1.000095891698757
1.000095748264607
1.000095623127685
1.000095486608809
1.000094747192104
1.000098147559679
1.000099125315793
1.000099338965917
1.000099361247846
1.000099694002454
1.00009956575082
1.000099321843469
1.000099000706811
1.000099977070152
1.00009960842231
1.000099176184766
1.000098711223411
1.000098244605201
1.00010007892324
1.000099546103833
1.000098984648256
1.000098420653915
1.000097880177177
1.000097387816419
1.000100083059845
1.000099442996279
1.000098796855087
1.000098167813456
1.000097578772676
1.00009705124938
1.000096604451387
1.00010005164017
1.0000993474372
1.000098650545732
1.000097982477363
1.000097364293544
1.000096815686203
1.000096354193663
1.000095994564013
1.000100025727953
1.000099291619634
1.000098571040694
1.000097884748134
1.000097252957979
1.00009669451543
1.000096226178468
1.000095862028944
1.000095613013585
1.000105540868809
1.000108528374181
1.000110473020632
1.000111605084046
1.000112139780198
1.00011226656087
1.000112144617482
1.000108567305802
1.000110269505202
1.000111272632302
1.000111732171176
1.000111798309993
1.000111606922757
1.000111274863176
1.000110898162706
1.000110551960859
1.000110291287566
1.000110152081647
1.000110501931933
1.00011126893537
1.000111579206499
1.000111539465647
1.000111255704018
1.000110826126282
1.00011033695985
1.000109860344082
1.00010945357495
1.000109159117847
1.000109004948444
1.000111586434858
1.000111691539278
1.000111507180114
1.000111108913124
1.000110573274861
1.000109972511618
1.000109371150615
1.000108824002718
1.000108375170188
1.000108057684513
1.000107893475118
1.000111698641142
1.000111171792521
1.000110524735845
1.000109814662346
1.00010909620765
1.000108418779334
1.000107824843425
1.000107348929334
1.000107017123927
1.000106846858557
1.000111436949245
1.000110680436951
1.000109866941333
1.000109041081235
1.000108245691261
1.000107519792132
1.000106897191981
1.00010640559187
1.000106066058409
1.000105892739593
1.000111032787076
1.000110127564086
1.000109207141487
1.000108308037433
1.000107465268122
1.000106710815521
1.000106072511147
1.000105573269871
1.00010523059722
1.000105056291872
1.000110589878328
1.000109592151312
1.000108606158377
1.000107663257847
1.000106793363845
1.000106023775156
1.000105378282071
1.000104876521061
1.000104533532901
1.000104359478212
1.000110189233774
1.000109136828483
1.000108112872318
1.000107145520202
1.000106261456036
1.000105484966576
1.000104837209232
1.000104335661385
1.000103993727444
1.000103820473684
1.000108807928999
1.000107763836508
1.000106784085875
1.000105893465103
1.000105114472517
1.000104466687255
1.000103966282481
1.000103625667669
1.000103453241161
1.000107583284009
1.000106598485004
1.000105705442375
1.00010492582246
1.00010427846584
1.000103778932452
1.00010343916239
1.000103267237649
1.000111902225454
1.000111638129241
1.000111423718238
1.000111305179484
1.000126273280396
1.000127226809887
1.00014744402113
1.00012734404567
1.000145249754923
1.000126873244929
1.000142803108999
1.00012603437009
1.000140307809103
1.000125012726152
1.000137926610941
1.000123958263474
1.000135784934483
1.000122987935225
1.000019905870716
1.000025945223808
1.000033010464688
1.000041327068403
1.000037493913714
1.00004614368169
1.000056058885844
1.000067392444978
1.000060064399868
1.000071169553619
1.00008350011677
1.000085896715256
1.000097096603591
1.000098674659184
1.000112049363251
1.000112092821504
1.000131605431112
1.000121332180839
1.000131117462539
1.000127230660172
1.000127218142046
1.000126679790883
1.000142787735123
1.000125784088684
1.000140258001978
1.000124684937561
1.000137779434613
1.000123515532448
1.000135470298939
1.000122386260995
1.000133424078761
1.000121385037884
1.000131712108515
1.00012057886627
1.00013038672932
1.000120015790774
1.000129484286642
1.000119726701914
1.000129027577952
1.000127300361975
1.000126639441635
1.000125662579086
1.000124487003737
1.000137661446636
1.00012322244866
1.000135256143049
1.000121966077625
1.000133050797347
1.000120800123395
1.000131116664348
1.000119791318729
1.000129509279697
1.000118991354069
1.000128270181145
1.000118437787766
1.000127428687497
1.00011815500694
1.000127003422273
1.000126746922647
1.000125672482646
1.000124420475437
1.000123075656299
1.000121718680831
1.000132817310894
1.000120422220298
1.000130733938565
1.00011924883676
1.000128919639519
1.000118250111726
1.000127418870375
1.000117466563554
1.000126265448749
1.000116927976657
1.000125483594078
1.000116653859494
1.000125088865103
1.000125806144248
1.000124484416986
1.000123074226518
1.000121639875772
1.000120243049144
1.000118939958881
1.000128579545258
1.000117779608213
1.000126884884903
1.000116802904854
1.000125487473923
1.000116042350575
1.000124415679274
1.000115522068071
1.000123690069269
1.000115257973474
1.000123323984836
1.000124676848811
1.000123220102867
1.0001217309481
1.000120260797587
1.000118859004654
1.000117570800229
1.000116435934504
1.000125058076366
1.000115487886946
1.000123756294649
1.000114753487343
1.000122759145631
1.000114252798526
1.00012208460839
1.000113999135001
1.000121744436404
1.000121999413776
1.000120481200645
1.000119008236399
1.000117621870425
1.000116360048904
1.000115256264798
1.000114338889537
1.000122260639203
1.000113630796026
1.000121328788053
1.000113149181915
1.000120698710839
1.000112905509657
1.000120381036582
1.000120917539043
1.000119398287965
1.000117939636269
1.000116577764444
1.00011534583451
1.000114273166777
1.000113384679334
1.00011270053863
1.000120151991892
1.000112235963359
1.000119558648753
1.000112001127697
1.000119259528795
1.000120046775407
1.000118538813272
1.000117100000012
1.000115763250173
1.000114558667038
1.000113512872792
1.00011264852952
1.000111984019262
1.000111533246405
1.000118685380021
1.000111305524527
1.000118400481463
1.000109890062011
1.000119438790753
1.000117943778922
1.000116522319538
1.000115205404193
1.000114021321937
1.000112995082634
1.000112147990561
1.000111497347081
1.000111056256257
1.000110833505721
1.000117819272957
1.000109730962225
1.000119126714799
1.000108635927247
1.000117639741682
1.000116228156175
1.000114922057966
1.000113748891217
1.000112732911855
1.000111894786619
1.000111251307576
1.000110815200435
1.000110595003565
1.00013397627565
1.000122189304936
1.000132567825946
1.000121624263119
1.000149141904012
1.000173491873343
0.3333346277177518
0.3333348916426183
1.000007058320155
1.000012020669349
0.3333351208249068
1.000008087919663
1.000013714611474
1.0000196977261
1.00002618347057
0.3333353153590587
1.00000896113461
1.000015147001483
1.000021652227465
1.00002860378246
1.0000361261595
1.000044338141951
1.000016329107345
1.000023258252025
1.000030580623624
1.000038400094901
1.000046811398897
1.000055895025524
1.000065710390283
1.000040192650755
1.000048741950931
1.000057857220672
1.000067574873339
1.000077901904856
1.000088807954741
1.000059317099466
1.00006893761892
1.000079048284618
1.000089605172962
1.000079822502891
1.000090111711822
1.00010055862975
1.000100694854782
1.00010074221644
1.00000587156637
1.000010062123972
1.000014678170022
1.000017375708457
1.000023289726357
1.00002993609368
1.000033319726094
1.000041253527189
1.000050126050477
1.000053347596314
1.000063243853422
1.000074087377788
1.000076287197861
1.000087615190728
1.000099671676439
1.000100253737062
1.000111886765998
1.000111567987952
1.000123519622809
1.000122459310408
1.000111241573882
1.00012158903824
1.000110983331442
1.000120974396976
1.000120656992038