/*--------------------------------*- C++ -*----------------------------------*\
  =========                 |
  \\      /  F ield         | OpenFOAM: The Open Source CFD Toolbox
   \\    /   O peration     | Website:  https://openfoam.org
    \\  /    A nd           | Version:  7
     \\/     M anipulation  |
\*---------------------------------------------------------------------------*/
FoamFile
{
    version     2.0;
    format      ascii;
    class       volScalarField;
    location    "0";
    object      p;
}
// * * * * * * * * * * * * * * * * * * * * * * * * * * * * * * * * * * * * * //

dimensions      [0 2 -2 0 0 0 0];

internalField   nonuniform List<scalar> 
12671
(
-5.047711086580465e-05
-4.80724552824046e-05
-6.446693919235707e-05
-4.683861959846149e-05
-6.004097583457074e-05
-7.666213210830848e-05
-5.685428988590967e-05
-7.044375678537627e-05
-8.707727165221467e-05
-5.418846178370106e-05
-6.5467346341456e-05
-7.926637686937624e-05
-9.577238209304193e-05
-5.167015954815372e-05
-6.10777846149869e-05
-7.264180936386164e-05
-8.652762223233001e-05
-0.0001028311995196943
-4.914642164295947e-05
-5.693431634647021e-05
-6.662442023009405e-05
-7.836693674148556e-05
-9.226423571472792e-05
-0.0001083441040231483
-4.659942873290546e-05
-5.290241214319895e-05
-6.092167846492376e-05
-7.07997958793557e-05
-8.264663862284218e-05
-9.651872895496594e-05
-0.0001123955249159651
-4.408412405692286e-05
-4.897485130748818e-05
-5.543243548043755e-05
-6.359707720381637e-05
-7.358887358259979e-05
-8.549102659427223e-05
-9.933024485531746e-05
-0.0001150551682266104
-4.167862464146453e-05
-4.520974470717215e-05
-5.017208106713975e-05
-5.670501640352094e-05
-6.49396127451833e-05
-7.498469224844625e-05
-8.691019958461749e-05
-0.000100728176810798
-0.000116372286174593
-2.429318592518175e-05
-3.610793643637483e-05
-5.215154936373978e-05
-8.09431210883796e-06
-8.28341951132235e-06
-8.838257132741602e-06
-9.978788598545414e-06
-1.197018004251586e-05
-1.513808277255503e-05
-1.988001158505347e-05
-2.667224869794965e-05
-3.606776994449573e-05
-4.867913313849516e-05
-6.513899517220705e-05
-1.405093925463583e-05
-1.442014184967104e-05
-1.532622284779078e-05
-1.697832775141001e-05
-1.962577030460492e-05
-2.356766627834661e-05
-2.915820438749651e-05
-3.680695699208327e-05
-4.697049744892386e-05
-6.013071128404705e-05
-7.675475399199416e-05
-1.97949622977184e-05
-2.032818518798479e-05
-2.155103327579423e-05
-2.365838872489499e-05
-2.687974456475771e-05
-3.148401438772146e-05
-3.777988100176565e-05
-4.611117463676306e-05
-5.6844348765651e-05
-7.034474576096858e-05
-8.693845826085365e-05
-2.517829775727244e-05
-2.585660886370571e-05
-2.735710943691271e-05
-2.985846479492854e-05
-3.356829603654229e-05
-3.87240341018159e-05
-4.558948055244834e-05
-5.444670916105936e-05
-6.558112995245805e-05
-7.925750808440103e-05
-9.568516097732548e-05
-3.006365751429963e-05
-3.086641691778662e-05
-3.2603074293125e-05
-3.543557146086497e-05
-3.954941689865135e-05
-4.515142175386674e-05
-5.24634785367673e-05
-6.17121720780494e-05
-7.311270268526638e-05
-8.684579009393379e-05
-0.0001030268098233413
-3.432864664100854e-05
-3.523446022715269e-05
-3.716519741486435e-05
-4.026687278817977e-05
-4.470423259497509e-05
-5.065612956153121e-05
-5.830735450583989e-05
-6.783685541709549e-05
-7.940136389060428e-05
-9.311376058023338e-05
-0.0001090161403471803
-3.786865668788542e-05
-3.885607078320239e-05
-4.093947245432486e-05
-4.425084551453347e-05
-4.893683744890649e-05
-5.515242418840848e-05
-6.305144857048167e-05
-7.277407629810109e-05
-8.44306063063263e-05
-9.808144417803456e-05
-0.0001137136634036881
-4.059872689308487e-05
-4.164664667755969e-05
-4.384263314891545e-05
-4.730740754041704e-05
-5.217320040835812e-05
-5.857624893318542e-05
-6.66465286331319e-05
-7.649484487853498e-05
-8.819702113446077e-05
-0.0001017753150273843
-0.0001171777729580604
-4.245461370149525e-05
-4.35424650025256e-05
-4.581245144302526e-05
-4.937743976947193e-05
-5.435965916237375e-05
-6.088247862478353e-05
-6.905968126540955e-05
-7.898241254629682e-05
-9.070373189339814e-05
-0.0001042210955655638
-0.000119457642244597
-4.339332213858955e-05
-4.450100225369301e-05
-4.680764219834207e-05
-5.042207909167384e-05
-5.546142695909632e-05
-6.204251236570699e-05
-7.027094457876665e-05
-8.022802217347601e-05
-9.195549908834275e-05
-0.0001054386307646631
-0.000120588443240212
-6.758493342842244e-05
-1.481229299962693e-05
-1.519539421386698e-05
-1.612907050017972e-05
-1.782235945650565e-05
-2.052445723648198e-05
-2.453424520521766e-05
-3.020541547583126e-05
-3.794660055146637e-05
-4.821278119541773e-05
-6.148338313131218e-05
-7.822206063877513e-05
-2.051865732057631e-05
-2.105306611090204e-05
-2.227795845908315e-05
-2.43880242436916e-05
-2.761272563372576e-05
-3.222141405108584e-05
-3.852394679510424e-05
-4.686631694570339e-05
-5.761831815496969e-05
-7.114986938499568e-05
-8.779271969259242e-05
-2.599244587867633e-05
-2.666370046867935e-05
-2.814957451251787e-05
-3.062840003139944e-05
-3.430773522995442e-05
-3.942578523130866e-05
-4.624846947588584e-05
-5.506180192275955e-05
-6.615732053061603e-05
-7.980823763647988e-05
-9.623438492136734e-05
-3.110080629810733e-05
-3.189243730414462e-05
-3.360589193688752e-05
-3.64023123411938e-05
-4.046666714797088e-05
-4.600619078209804e-05
-5.324478700399413e-05
-6.241322406303055e-05
-7.3733496913996e-05
-8.739588322686077e-05
-0.0001035277770836576
-3.572107312203423e-05
-3.661549712720813e-05
-3.852170795246896e-05
-4.158395073907e-05
-4.596530041061066e-05
-5.184378605457618e-05
-5.940489289744353e-05
-6.883041569772807e-05
-8.028257883762809e-05
-9.388261574898615e-05
-0.0001096836084089464
-3.974410598830237e-05
-4.072335213964982e-05
-4.2787434996178e-05
-4.606499891401505e-05
-5.069912398201341e-05
-5.684172231517454e-05
-6.464475409122928e-05
-7.424835663337025e-05
-8.576523487134267e-05
-9.926100132663761e-05
-0.0001147307499585812
-4.307668357561322e-05
-4.412290980481624e-05
-4.631083717827023e-05
-4.975564769161264e-05
-5.458331242535714e-05
-6.09237534456323e-05
-6.890124096648426e-05
-7.862220802871445e-05
-9.016016044437708e-05
-0.0001035377217570051
-0.0001187064068489614
-4.564307894100791e-05
-4.673886784804305e-05
-4.901793407435368e-05
-5.258480047081919e-05
-5.755197742787885e-05
-6.403229271524514e-05
-7.212880281381927e-05
-8.192252843658764e-05
-9.345792641737705e-05
-0.0001067263728642451
-0.0001216484371150098
-4.73859970147094e-05
-4.851444842966817e-05
-5.085332838639113e-05
-5.449979070976953e-05
-5.955708129481599e-05
-6.612636035880737e-05
-7.429635283348752e-05
-8.413110605978427e-05
-9.565591625116845e-05
-0.00010884184105381
-0.00012358967965928
-4.826706781346973e-05
-4.941172464058205e-05
-5.178020449170941e-05
-5.546589895416509e-05
-6.056733643977846e-05
-6.717976525657127e-05
-7.538469274865532e-05
-8.523767657526021e-05
-9.67545019501543e-05
-0.0001098962289560962
-0.0001245540357571762
-2.129911268681281e-05
-2.185821937472934e-05
-2.313212040767212e-05
-2.531499069692582e-05
-2.863544246767049e-05
-3.336113980042827e-05
-3.979890330431497e-05
-4.82898094215085e-05
-5.919637720627651e-05
-7.287858407534655e-05
-8.96555949896016e-05
-2.673451836943025e-05
-2.7417840344411e-05
-2.892738153714208e-05
-3.144094518614775e-05
-3.5165424422072e-05
-4.033813754147366e-05
-4.722379623189927e-05
-5.610678165222475e-05
-6.727647928935167e-05
-8.100336763362309e-05
-9.750396719145955e-05
-3.192649931879067e-05
-3.272148256386716e-05
-3.444098868839946e-05
-3.724549465729343e-05
-4.131929316380788e-05
-4.686912861098671e-05
-5.411876623998282e-05
-6.329934048993362e-05
-7.463383132679846e-05
-8.831415957065093e-05
-0.000104469943895083
-3.67552908849647e-05
-3.764799875404908e-05
-3.95496951250964e-05
-4.260349926647326e-05
-4.697136251781077e-05
-5.283056504351852e-05
-6.036654557378636e-05
-6.976206338830357e-05
-8.118155734504594e-05
-9.474982794751178e-05
-0.0001105247671678266
-4.11107476395952e-05
-4.208655290848411e-05
-4.414190612429738e-05
-4.740340533683948e-05
-5.201196539146266e-05
-5.811768313397734e-05
-6.587147973896446e-05
-7.541364427862087e-05
-8.685856873485438e-05
-0.0001002752856383092
-0.0001156640051228087
-4.489506812262062e-05
-4.593920400634701e-05
-4.811994951582502e-05
-5.154898453134339e-05
-5.634839422722859e-05
-6.264433879915727e-05
-7.055794012129137e-05
-8.019360301744556e-05
-9.162439666951444e-05
-0.0001048744626946633
-0.0001198989562533155
-4.802477829916102e-05
-4.912271920689847e-05
-5.140153111032689e-05
-5.49602181868432e-05
-5.990497794597987e-05
-6.634203337994701e-05
-7.436807775616082e-05
-8.405861427685669e-05
-9.545406797503031e-05
-0.0001085438850794561
-0.0001232493175477378
-5.04320657217063e-05
-5.156973271518691e-05
-5.392053683181968e-05
-5.757355164682451e-05
-6.262259443568856e-05
-6.915850447507587e-05
-7.725935526353728e-05
-8.697892360336353e-05
-9.833347048378089e-05
-0.0001112872133480443
-0.0001257372978331197
-5.20656000167661e-05
-5.322940565223342e-05
-5.562737259167201e-05
-5.934175608996116e-05
-6.445790558963611e-05
-7.10562108815201e-05
-7.920220756297709e-05
-8.893518763964224e-05
-0.0001002554825462075
-0.0001131108967724291
-0.0001273831580412504
-5.289098670561609e-05
-5.406774854485255e-05
-5.648902894858349e-05
-6.023361555027064e-05
-6.538256109276694e-05
-7.201097498136413e-05
-8.017809007302069e-05
-8.991596059688809e-05
-0.0001012170127336216
-0.0001140209719777209
-0.0001282020574649619
-2.738368241003639e-05
-2.809773415890542e-05
-2.966828312367755e-05
-3.227235632832229e-05
-3.611551104981793e-05
-4.143244131444335e-05
-4.84832540219803e-05
-5.75450762406381e-05
-6.889685873843129e-05
-8.279523661841342e-05
-9.943976478018503e-05
-3.254288817114446e-05
-3.335662268593964e-05
-3.511317598800198e-05
-3.79723508942603e-05
-4.211743146923179e-05
-4.775348425308443e-05
-5.510161556101748e-05
-6.438903097188163e-05
-7.583330172274803e-05
-8.96194053617534e-05
-0.0001058686746976051
-3.745480585716493e-05
-3.83576461129573e-05
-4.027900019292928e-05
-4.336122886159967e-05
-4.776533311146215e-05
-5.366739653382386e-05
-6.125136338632994e-05
-7.069816034038183e-05
-8.217004042673297e-05
-9.57892922109124e-05
-0.0001116110577037417
-4.201075686979238e-05
-4.29911975837813e-05
-4.505481565589618e-05
-4.832703474354493e-05
-5.294743870916855e-05
-5.906477340461969e-05
-6.682871422969334e-05
-7.637853856384813e-05
-8.782798044669449e-05
-0.0001012458605629847
-0.0001166326667057124
-4.611115145358794e-05
-4.715729339684178e-05
-4.934033245073889e-05
-5.276992899642165e-05
-5.756590657786715e-05
-6.385218225303798e-05
-7.17479032318765e-05
-8.135602697929157e-05
-9.274894479784181e-05
-0.0001059510796740604
-0.0001209189223519135
-4.966773087543885e-05
-5.076769722571522e-05
-5.30477787386525e-05
-5.660363108331326e-05
-6.153764935499495e-05
-6.795213556208767e-05
-7.594008868000909e-05
-8.557392186158783e-05
-9.689195743120234e-05
-0.0001098828737283398
-0.0001244687488689188
-5.260522304144318e-05
-5.374743833540581e-05
-5.610313347697435e-05
-5.975620240416553e-05
-6.479448985077019e-05
-7.130244139885735e-05
-7.935173998084231e-05
-8.899027555405473e-05
-0.0001002294847160365
-0.0001130304018414381
-0.0001272891721048436
-5.486247993990641e-05
-5.603580972701287e-05
-5.844684292218097e-05
-6.217033374875749e-05
-6.728287256276009e-05
-7.385520540162765e-05
-8.194283011035103e-05
-9.157523932776047e-05
-0.0001027439772013332
-0.0001153899604194781
-0.0001293908697677436
-5.639319903637793e-05
-5.758696275753572e-05
-6.003416366399395e-05
-6.380331435058202e-05
-6.896334492878733e-05
-7.557573080365333e-05
-8.368509832119831e-05
-9.330869002159288e-05
-0.0001044249381657211
-0.0001169616616547326
-0.0001307847188214494
-5.716634031079771e-05
-5.837022081725364e-05
-6.083527386548238e-05
-6.462684741164293e-05
-6.980999542277299e-05
-7.644151856532361e-05
-8.456058569352024e-05
-9.417832223783538e-05
-0.0001052666535099235
-0.0001177469478366633
-0.0001314793018713055
-3.290803108187361e-05
-3.375426313982647e-05
-3.557561819041977e-05
-3.853130203991267e-05
-4.280337753167707e-05
-4.859423885686685e-05
-5.612011745166718e-05
-6.56004481769049e-05
-7.724163339296771e-05
-9.121395141321446e-05
-0.0001076209545744776
-3.780068989477623e-05
-3.872521579684101e-05
-4.068980205184473e-05
-4.383640321002152e-05
-4.832522236236014e-05
-5.433067829043611e-05
-6.203376005661267e-05
-7.16107696219636e-05
-8.321740842198291e-05
-9.696745019072089e-05
-0.0001129058543412517
-4.244705425258314e-05
-4.344117369016829e-05
-4.553188211450252e-05
-4.884415084027934e-05
-5.351686530577323e-05
-5.969761157867436e-05
-6.753425601998246e-05
-7.716345745751064e-05
-8.869542622626014e-05
-0.0001021945680066257
-0.0001176562347716825
-4.674767649136951e-05
-4.780208858510305e-05
-5.000102390491888e-05
-5.345330838099577e-05
-5.827772973053071e-05
-6.459694053752228e-05
-7.252857902718702e-05
-8.217385077611948e-05
-9.3603181706071e-05
-0.0001068388834459771
-0.0001218353034279653
-5.061170924719838e-05
-5.171692439563992e-05
-5.400618958187084e-05
-5.757354212026245e-05
-6.25194943474203e-05
-6.894430784803867e-05
-7.693890012603289e-05
-8.657369822170646e-05
-9.788528526212554e-05
-0.0001108610040733898
-0.0001254221479376802
-5.395877761156217e-05
-5.510543140789947e-05
-5.746770344241984e-05
-6.11266479420223e-05
-6.616683264475804e-05
-7.266918956618839e-05
-8.070187857085001e-05
-9.030952200864244e-05
-0.0001015008371000723
-0.0001142349874757571
-0.0001284073743483717
-5.67203802592409e-05
-5.789943660270697e-05
-6.031831449261978e-05
-6.404725960877635e-05
-6.915763395621451e-05
-7.571449894431832e-05
-8.376753735350475e-05
-9.334069551230228e-05
-0.0001044207050918785
-0.0001169449118098024
-0.000130789176728031
-5.884087163671257e-05
-6.00437149766192e-05
-6.250384511316817e-05
-6.628316100735425e-05
-7.144286812351339e-05
-7.803590451627424e-05
-8.609796251930094e-05
-9.563749688192352e-05
-0.0001066249706854304
-0.0001189818336154285
-0.0001325700164482676
-6.027810293758551e-05
-6.149653024822084e-05
-6.398353363053609e-05
-6.779533567892853e-05
-7.298625493411438e-05
-7.960104892064061e-05
-8.76660295008603e-05
-9.717934372688409e-05
-0.0001081007289253324
-0.0001203412755466438
-0.0001337539863029357
-6.100380732393918e-05
-6.222993852984479e-05
-6.473017871125304e-05
-6.855787928849137e-05
-7.376388149047215e-05
-8.038882450634196e-05
-8.8454315922082e-05
-9.795335754030154e-05
-0.0001088403628050983
-0.00012102131704557
-0.0001343448691925145
-3.773194182108496e-05
-3.868700534473278e-05
-4.071318154778759e-05
-4.395263256713184e-05
-4.856526805712728e-05
-5.47238753266608e-05
-6.260572758526138e-05
-7.238064749012218e-05
-8.419461210640734e-05
-9.814830922957833e-05
-0.0001142706868013257
-4.238120193900745e-05
-4.339665037039845e-05
-4.553059385807765e-05
-4.890842005430944e-05
-5.366914219961807e-05
-5.99596459445072e-05
-6.792578962030089e-05
-7.770048277416269e-05
-8.938813880662649e-05
-0.0001030452411820242
-0.0001186573547426639
-4.678806543762197e-05
-4.785685896419448e-05
-5.008499279483043e-05
-5.35816486123139e-05
-5.846580837572834e-05
-6.485984489235921e-05
-7.288036383235505e-05
-8.26265336340602e-05
-9.416555949298217e-05
-0.000107515298103626
-0.0001226245433101179
-5.086059190192707e-05
-5.19753245123235e-05
-5.428367389304544e-05
-5.787964055266039e-05
-6.28635738684451e-05
-6.933530624841878e-05
-7.738493689585284e-05
-8.708157894720267e-05
-9.845993763682739e-05
-0.0001115049085723353
-0.000126134850660804
-5.451500469148008e-05
-5.566822227635166e-05
-5.804301410574165e-05
-6.171963325154567e-05
-6.67816617957878e-05
-7.330885296427543e-05
-8.136800061274343e-05
-9.100219738751194e-05
-0.0001022185151220414
-0.0001149744342277615
-0.0001291637448450961
-5.767728697333244e-05
-5.886172428370826e-05
-6.128981670514966e-05
-6.502985334240942e-05
-7.015090349373734e-05
-7.671549213333204e-05
-8.477064249126085e-05
-9.433767117171159e-05
-0.0001054008948831135
-0.0001178956695136759
-0.000131696513462999
-6.028439118357794e-05
-6.149311906528273e-05
-6.396224850225082e-05
-6.77501734623684e-05
-7.29140146572499e-05
-7.950221544183549e-05
-8.754579227546129e-05
-9.704863311675119e-05
-0.0001079770938749772
-0.0001202493744495541
-0.0001337254314653088
-6.228510279306843e-05
-6.351158662559774e-05
-6.601043770913533e-05
-6.983244467393449e-05
-7.502557781443616e-05
-8.162755817202916e-05
-8.965730559059065e-05
-9.91056577734811e-05
-0.0001099256728286402
-0.0001220230338216521
-0.0001352473057862128
-6.364061874131345e-05
-6.487869698179297e-05
-6.739681534735124e-05
-7.124060672932523e-05
-7.645185453012792e-05
-8.306106005704492e-05
-9.107904251249092e-05
-0.0001004879590566132
-0.0001112320960500416
-0.0001232089704222338
-0.0001362614822159212
-6.432490684518823e-05
-6.556870475105705e-05
-6.809628361312807e-05
-7.195067326699641e-05
-7.717053841976523e-05
-8.378275014770912e-05
-9.179406799192884e-05
-0.0001011823166805625
-0.0001118874269833572
-0.0001238028885940887
-0.0001367683499099031
-4.173611042792697e-05
-4.277686896518009e-05
-4.496316620273806e-05
-4.842211765982051e-05
-5.329428074701917e-05
-5.972711088647153e-05
-6.786534465812417e-05
-7.783840382797949e-05
-8.974432675614444e-05
-0.0001036301082252317
-0.0001194689353889592
-4.617667903949285e-05
-4.726353903796917e-05
-4.952954667350695e-05
-5.308574805845534e-05
-5.805296921067852e-05
-6.455485288690556e-05
-7.270818866945534e-05
-8.261075179059626e-05
-9.432637872390467e-05
-0.0001078673673044187
-0.000123174830912884
-5.03799779380352e-05
-5.150727237844501e-05
-5.384228041699445e-05
-5.748071959446248e-05
-6.252472044271469e-05
-6.907559407011242e-05
-7.72242661041752e-05
-8.703967890786682e-05
-9.855507315373252e-05
-0.0001117523932383564
-0.0001265455317301634
-5.425995732992459e-05
-5.542181802484932e-05
-5.781499090198775e-05
-6.152098046832116e-05
-6.662468920526852e-05
-7.320704185770341e-05
-8.133563941744279e-05
-9.105379943014189e-05
-0.0001023680399969797
-0.0001152343649456989
-0.0001295441069519651
-5.773835976128182e-05
-5.892896552937021e-05
-6.136980419449775e-05
-6.51296135469526e-05
-7.027790703854015e-05
-7.687755166860032e-05
-8.497571402052039e-05
-9.45935595778047e-05
-0.0001057148756311093
-0.0001182740523566758
-0.0001321441887093388
-6.074611694558037e-05
-6.195987407178109e-05
-6.443853830839949e-05
-6.823980690001058e-05
-7.341994971744071e-05
-8.002640689863967e-05
-8.808905525090023e-05
-9.761053757028667e-05
-0.0001085559092383123
-0.000120842085997998
-0.0001343278493666134
-6.322441998580209e-05
-6.445606911584583e-05
-6.696355168832473e-05
-7.079547717221414e-05
-7.599725899648818e-05
-8.260376858578023e-05
-9.063091039081325e-05
-0.0001000665086802129
-0.0001108608204377891
-0.0001229171875073872
-0.0001360835641976093
-6.512549637633672e-05
-6.637014724521799e-05
-6.889830507628084e-05
-7.275161886588574e-05
-7.79672141273394e-05
-8.457041392241669e-05
-9.256657670714651e-05
-0.0001019324325099289
-0.0001126072722555566
-0.000124484519200479
-0.0001374043965267322
-6.641314198933205e-05
-6.766624349282958e-05
-7.020770229630893e-05
-7.407445996606481e-05
-7.929805018578952e-05
-8.589737657289634e-05
-9.387074089250539e-05
-0.0001031874936985997
-0.0001137796869635383
-0.0001255342652017191
-0.0001382864910700156
-6.706306083738961e-05
-6.832031872779402e-05
-7.086827600374812e-05
-7.474150077420159e-05
-7.996871143658962e-05
-8.656558659325575e-05
-9.452689304631925e-05
-0.0001038182981236072
-0.0001143682575711503
-0.0001260605183990885
-0.0001387279226676793
-4.482405524826767e-05
-4.592803913616268e-05
-4.823176723634405e-05
-5.18502649380085e-05
-5.690866003309345e-05
-6.353451275303433e-05
-7.18474607395039e-05
-8.19463550227854e-05
-9.389369326927241e-05
-0.0001076975455066328
-0.0001232917278176533
-4.909997141320449e-05
-5.0239418105032e-05
-5.260209179655837e-05
-5.628766265425209e-05
-6.140262339601076e-05
-6.805252403613781e-05
-7.63318670222633e-05
-8.631193831358728e-05
-9.802653690155468e-05
-0.0001114559203051915
-0.0001265097693870316
-5.314362688708272e-05
-5.43139156534909e-05
-5.672698127779513e-05
-6.046796968446876e-05
-6.56258529097647e-05
-7.228566334526427e-05
-8.05187323049152e-05
-9.037127482709251e-05
-0.0001018514101154426
-0.0001149150234764374
-0.0001294512877743984
-5.687332641349452e-05
-5.806974741547089e-05
-6.05247102719459e-05
-6.430998649880296e-05
-6.949850446065838e-05
-7.615665669328071e-05
-8.433494116251268e-05
-9.405731591670795e-05
-0.000105309456039588
-0.0001180263782488733
-0.0001320802411884443
-6.021487424044133e-05
-6.143282705087487e-05
-6.392161614677489e-05
-6.774106630398887e-05
-7.294984727792033e-05
-7.959790376104388e-05
-8.771752290102778e-05
-9.731343341926103e-05
-0.0001083522005608904
-0.0001207514187222308
-0.0001343694837666551
-6.310283431354118e-05
-6.433796875266309e-05
-6.685318398713085e-05
-7.069801853642368e-05
-7.591892005956844e-05
-8.255182287178004e-05
-9.061363066185253e-05
-0.0001000929967349736
-0.0001109407208259369
-0.0001230602839451401
-0.0001362992691333443
-6.548150459976446e-05
-6.672979971382038e-05
-6.926483555128615e-05
-7.312771208340699e-05
-7.835488815150005e-05
-8.497090831401301e-05
-9.298025832397012e-05
-0.000102358730317801
-0.0001130446549755144
-0.0001249305304084923
-0.0001378557602313559
-6.730563397928303e-05
-6.856341674059552e-05
-7.111246722657436e-05
-7.498743806870809e-05
-8.021717935374717e-05
-8.681759640474511e-05
-9.478380908097681e-05
-0.000104081979053582
-0.0001146411875109596
-0.0001263458948720943
-0.0001390296636829379
-6.85409218161445e-05
-6.980483198617716e-05
-7.236279088005624e-05
-7.624509803204556e-05
-8.147547760335334e-05
-8.806403270779946e-05
-9.599961895853633e-05
-0.0001052419909113888
-0.0001157141189220713
-0.00012729520705175
-0.0001398150701517125
-6.916434379532229e-05
-7.043125522615369e-05
-7.299353190005137e-05
-7.687928067576557e-05
-8.210964722805201e-05
-8.869182146536233e-05
-9.661152174538839e-05
-0.000105825304227037
-0.0001162531018669305
-0.0001277715225969248
-0.0001402085526196855
-4.692309631794599e-05
-4.806864183395396e-05
-5.044921537343025e-05
-5.417140744324937e-05
-5.934963870267257e-05
-6.609780492933431e-05
-7.451851885252292e-05
-8.469017581409658e-05
-9.665184031581171e-05
-0.0001103863380641943
-0.0001258024555390829
-5.108538799637533e-05
-5.225935686787638e-05
-5.468519948340028e-05
-5.845471376850604e-05
-6.366451879511932e-05
-7.040780781682672e-05
-7.8764023396728e-05
-8.878676544308351e-05
-0.0001004900429062733
-0.0001138333239979912
-0.0001287062805417733
-5.501930761104451e-05
-5.62177812107234e-05
-5.868177322453096e-05
-6.248916179139043e-05
-6.771990822386299e-05
-7.444797759178869e-05
-8.273150110608204e-05
-9.260154384327684e-05
-0.0001040496792280897
-0.0001170148715964957
-0.000131370536386841
-5.864603432934961e-05
-5.986507454783259e-05
-6.236026984562541e-05
-6.619673551022422e-05
-7.143923909796176e-05
-7.814432897168586e-05
-8.635100829123403e-05
-9.607034421457781e-05
-0.0001072742833427547
-0.0001198842015841174
-0.0001337600186757078
-6.189404434669709e-05
-6.312986029419843e-05
-6.564978883283456e-05
-6.950758451277484e-05
-7.475455442087059e-05
-8.143191438435987e-05
-8.956196862427906e-05
-9.913850821077432e-05
-0.0001101167507649929
-0.0001224033614586887
-0.0001358473393071273
-6.470028611574857e-05
-6.594934977106815e-05
-6.84882170363442e-05
-7.236088781627635e-05
-7.760716009309158e-05
-8.425521288775777e-05
-9.231325669013311e-05
-0.0001017606382234426
-0.0001125387583078826
-0.0001245423445079738
-0.0001376118151342482
-6.701109485901029e-05
-6.827020247753357e-05
-7.082298137408163e-05
-7.470544606350692e-05
-7.994800641296851e-05
-8.656825737642581e-05
-9.456303937096808e-05
-0.0001039001400243105
-0.0001145100205495555
-0.0001262781041399684
-0.0001390383191939334
-6.878287187999048e-05
-7.004915277306519e-05
-7.261157243593399e-05
-7.650005383969346e-05
-8.173786568123516e-05
-8.833458249141422e-05
-9.62784723018506e-05
-0.0001055286647427908
-0.0001160074983843001
-0.0001275935781176914
-0.000140116199253602
-6.998256376382959e-05
-7.125344217238411e-05
-7.382188575194255e-05
-7.771370900790425e-05
-8.294737430339383e-05
-8.952707297438008e-05
-9.743534075992546e-05
-0.0001066255456409731
-0.0001170146558622416
-0.0001284768129315441
-0.0001408383405866158
-7.058797941538619e-05
-7.186109845046944e-05
-7.443242778197404e-05
-7.832571375220548e-05
-8.355700233349745e-05
-9.012778301199541e-05
-9.801772099484073e-05
-0.0001071773075546823
-0.0001175208403556561
-0.0001289202550538253
-0.0001412004258442637
-4.798473653396808e-05
-4.915086785938192e-05
-5.156939611828649e-05
-5.53425839656486e-05
-6.057937569553796e-05
-6.738672012407991e-05
-7.585863806478932e-05
-8.60632853382713e-05
-9.802810073283606e-05
-0.0001117235119669756
-0.0001270461653817575
-5.208906413398447e-05
-5.328011860305096e-05
-5.573713462721297e-05
-5.954788912518849e-05
-6.48039715586361e-05
-7.159231254220123e-05
-7.998477031072922e-05
-9.002610183930226e-05
-0.0001017205008577728
-0.0001150172214121987
-0.0001297962216551614
-5.596712748220594e-05
-5.717953820413442e-05
-5.966863692321429e-05
-6.350860313554936e-05
-6.877482330572582e-05
-7.553566758069405e-05
-8.384263054910342e-05
-9.3719208732595e-05
-0.0001051487700766849
-0.0001180619607791956
-0.0001323245396720825
-5.95415347239123e-05
-6.077174872379162e-05
-6.328675361011252e-05
-6.714828727759009e-05
-7.241698503278892e-05
-7.914442876292644e-05
-8.736384982697357e-05
-9.707987897810791e-05
-0.0001082576536983538
-0.0001208118397533578
-0.0001345964047208898
-6.274208754385326e-05
-6.39867169159892e-05
-6.652195212850254e-05
-7.03984749426505e-05
-7.566387227846453e-05
-8.23549631828866e-05
-9.04890440097132e-05
-0.0001000544463563057
-0.0001110007579342765
-0.0001232292635182469
-0.0001365843884999256
-6.550691573081917e-05
-6.676284105738133e-05
-6.931330772968014e-05
-7.319951714200869e-05
-7.845791295326076e-05
-8.511277254517495e-05
-9.316794845019577e-05
-0.0001025981425287631
-0.0001133400904601321
-0.0001252842069156671
-0.0001382674206638171
-6.778336304905342e-05
-6.904778631694377e-05
-7.160923908139925e-05
-7.550116991610261e-05
-8.075094121785308e-05
-8.737265477592462e-05
-9.535932002620629e-05
-0.0001046747293510885
-0.0001152454358714884
-0.0001269533738741206
-0.0001396298037563825
-6.952864851234147e-05
-7.079909714853514e-05
-7.336802519131218e-05
-7.726297160316506e-05
-8.250439572416722e-05
-8.909869194114625e-05
-9.703069580201632e-05
-0.0001062560265358669
-0.000116693672345963
-0.0001282193481185626
-0.0001406602691728062
-7.071033580745927e-05
-7.198462318570572e-05
-7.455814702713342e-05
-7.845446262129757e-05
-8.36893853839329e-05
-9.026413814726467e-05
-9.815809106518471e-05
-0.0001073214233855003
-0.0001176681194981147
-0.0001290698205260946
-0.0001413511483200629
-7.13066460815036e-05
-7.258279684658612e-05
-7.515849742574299e-05
-7.90552983781855e-05
-8.428668100710842e-05
-9.085127295679047e-05
-9.872570759966062e-05
-0.0001078574477503254
-0.0001181579887789206
-0.000129496957774533
-0.0001416977118247926
-5.542160711198196e-05
-7.13777269599807e-05
-8.524276063940867e-05
-9.706560972621516e-05
-0.0001069585207316611
-0.0001150660451858622
-0.000121541274467886
-0.000126528895775885
-0.000130153874229051
-0.0001325143650075617
-0.0001336775763926639
-7.323275567320421e-05
-8.60260143875827e-05
-9.722872031296606e-05
-0.0001068551014211695
-0.0001149699913088168
-0.0001216664362208121
-0.0001270479205064318
-0.0001312151741237545
-0.0001342569487436044
-0.0001362439306274723
-0.0001372249726970618
-9.881032712587031e-05
-0.0001077827190317643
-0.0001155533898614437
-0.0001221533405854077
-0.0001276377217097104
-0.0001320727143981197
-0.0001355254217950488
-0.0001380565085668105
-0.0001397151262132501
-0.0001405356257562846
-0.0001168921461266773
-0.0001231279076309479
-0.0001284641743200103
-0.0001329293974169161
-0.0001365627219015053
-0.0001394063737311883
-0.0001414999113340195
-0.0001428761118416739
-0.0001435582073120105
-0.0001338938089809592
-0.0001375196628490033
-0.0001404881306771647
-0.0001428236169301043
-0.0001445502920146062
-0.0001456888407995737
-0.0001462542109414009
-0.0001414071558167276
-0.000143836432193116
-0.0001457574967968933
-0.0001471836293035962
-0.000148126837013524
-0.0001485960665464288
-0.0001466069520110951
-0.0001481990949124503
-0.0001493857223264512
-0.0001501727961458819
-0.0001505650411462444
-0.0001501465873920012
-0.0001511493492075731
-0.0001518162539407371
-0.0001521491547827808
-0.0001524717825346748
-0.0001530514924845378
-0.0001533412787609487
-0.0001538757927448753
-0.0001541375282990953
-0.000154536018043464
-8.864532110940933e-05
-0.000109748671173897
-0.0001189253553131747
-0.0001245987819485499
-0.000129590328958305
-0.0001264607914527133
-0.0001309765448238759
-0.0001349803717496866
-0.0001384576314058365
-0.000132487974018033
-0.0001361135119023858
-0.0001393522256100066
-0.0001421849808120439
-0.0001446034899208415
-0.0001371354443837401
-0.0001400983664950631
-0.0001427639269626253
-0.0001451109343517625
-0.0001471269751429746
-0.0001488060779127418
-0.0001405157262979343
-0.0001430107795883208
-0.0001452695102973439
-0.0001472700115296087
-0.0001489976357631059
-0.0001504433453719122
-0.0001516021584009311
-0.0001427179523400164
-0.0001449149640107746
-0.0001469135213732975
-0.0001486916078822398
-0.0001502334748845179
-0.0001515284111448007
-0.0001525695443676725
-0.0001533527598422821
-0.0001438034718662772
-0.0001458556206206107
-0.0001477274154442144
-0.0001493968896118434
-0.0001508478558393549
-0.000152068873826234
-0.0001530522219522474
-0.000153792953626872
-0.0001542880946492195
-8.249305256984946e-05
-9.766965942121914e-05
-0.0001104980263611424
-0.0001211496330370348
-0.0001298406363367879
-0.000136798682422087
-0.0001422401696455544
-9.970676209695296e-05
-0.0001114499566512314
-0.0001214723834114311
-0.000129872535624494
-0.000136787549753841
-0.000142369083565726
-0.000146765910697113
-0.0001501122587768291
-0.0001525205657597806