/*--------------------------------*- C++ -*----------------------------------*\
  =========                 |
  \\      /  F ield         | OpenFOAM: The Open Source CFD Toolbox
   \\    /   O peration     | Website:  https://openfoam.org
    \\  /    A nd           | Version:  7
     \\/     M anipulation  |
\*---------------------------------------------------------------------------*/
FoamFile
{
    version     2.0;
    format      ascii;
    class       volScalarField;
    location    "0";
    object      Phi;
}
// * * * * * * * * * * * * * * * * * * * * * * * * * * * * * * * * * * * * * //

dimensions      [0 2 -1 0 0 0 0];

internalField   nonuniform List<scalar> 
12671
(
44.00593720300095
45.33925092247543
44.00581986879317
46.67257122990341
45.33915106186871
44.0057152408192
46.67248751619692
45.33906321530237
44.00562374652074
48.00582908728203
46.67241523911292
45.33898774720002
44.00554555359815
49.33917506507122
48.00577119113277
46.67235473350384
45.33892483894163
44.00548066319246
50.67252446176299
49.33913045173826
48.0057245956674
46.67230619895884
45.33887455396399
44.00542898307597
52.00587620672506
50.67249215125705
49.33909677511343
48.00568950712857
46.6722697448057
45.33883688852534
44.00539038284171
53.33922928385265
52.00585534602669
50.67247048442406
49.33907422731454
48.00566605442396
46.67224542458208
45.33881180952337
44.00536473379272
54.67258283268804
53.33921914927172
52.00584487163442
50.67245961417847
49.33906292568356
48.0056543114023
46.6722332607865
45.33879928102648
44.00535193620723
46.67276806561635
45.33935951347754
44.0059344352397
57.33959977912868
56.00626033442476
54.67291457193488
53.33956207456367
52.006202206624
50.67283410361198
49.3394566618886
48.0060685316141
46.67266811766195
45.33925359480148
44.00582294496987
57.33953397876659
56.00619367253105
54.67284620304574
53.33949118735755
52.00612804598448
50.67275599858338
49.33937406122646
48.00598104820843
46.67257558232362
45.33915611859486
44.00572098729939
57.33947266303455
56.00613160628436
54.67278265285096
53.33942545560986
52.0060594929321
50.67268406910385
49.33929831755777
48.00590120935669
46.67249157007804
45.33906810888537
44.00562946396009
57.33941686715511
56.00607517065562
54.67272495480699
53.33936590798533
52.00599756507513
50.67261931157788
49.33923039132925
48.00582991977754
46.67241690523932
45.3389902808829
44.00554895025631
57.33936747800656
56.00602524909476
54.67267398460864
53.33931340632869
52.00594310174158
50.67256253090711
49.33917103741617
48.00576786494283
46.67235218116479
45.33892311094803
44.00547978055462
57.33932523741204
56.00598257807912
54.67263046728766
53.33926865665744
52.00589678027222
50.67251436352773
49.33912083633117
48.0057155517646
46.67229781145524
45.33886689887012
44.00542212150796
57.33929074803798
56.00594775413015
54.67259498647412
53.33923222180618
52.00585913318097
50.6724753001818
49.33908022359686
48.0056733453582
46.67225407456596
45.33882182031187
44.00537603170147
57.33926448047192
56.00592124182671
54.67256799427621
53.339204534084
52.00583056446001
50.67244570665533
49.33904951555652
48.00564150033416
46.67222115066883
45.33878796890424
44.00534150814203
57.33924678028097
56.00590338160296
54.67254982054133
53.3391859066922
52.00581136378658
50.67242584130878
49.33902893060794
48.00562018590463
46.67219915051319
45.33876538840293
44.00531852087357
57.33923787410748
56.00589439638541
54.67254068056197
53.33917654299037
52.00580171778312
50.67241586866948
49.33901860533933
48.00560950459275
46.67218813651998
45.33875409572423
44.00530703724879
44.00581415260616
57.33953171738703
56.00619139403521
54.67284389075878
53.33948882551984
52.00612562029118
50.67275349682419
49.33937147405966
48.00597837009958
46.67257281266971
45.33915326303329
44.00571805916353
57.33947118230066
56.00613015689232
54.67278126619419
53.33942416308174
52.00605832567389
50.6726830574601
49.33929749016549
48.00590059181928
46.67249118321758
45.33906796662494
44.00562957096369
57.33941468432707
56.00607304560504
54.67272294525394
53.33936407135237
52.00599595788852
50.67261798835159
49.33922940280267
48.00582931042882
46.67241671007255
45.33899052159403
44.00554963102091
57.33936319765427
56.00602103476116
54.6726699025514
53.33930952306034
52.00593948360935
50.67255924304426
49.33916814191208
48.00576541814078
46.67235023008875
45.3389216889853
44.00547890268338
57.33931756303277
56.00597496287239
54.67262297143477
53.33926134212209
52.0058897111127
50.67250760554303
49.3391144558738
48.00570961361374
46.6722923757328
45.33886201710645
44.00541783211427
57.33927848867339
56.00593553426702
54.67258284789244
53.33922021061353
52.00584730140989
50.67246370672589
49.33906893430424
48.00566243214549
46.67224361348926
45.33881188862809
44.00536670408126
57.33924655369992
56.00590332344092
54.6725500967061
53.33918667763604
52.00581278073246
50.6724280413243
49.33903203033024
48.00562427389291
46.67220427844319
45.33877156160718
44.00532568905757
57.33922221293482
56.0058787806061
54.67252515852043
53.33916116865178
52.0057865528454
50.67240098386448
49.33900408070159
48.00559542853369
46.67217460363347
45.33874120336937
44.00529488110707
57.33920580197384
56.00586223737543
54.67250835673779
53.33914399416341
52.00576891004331
50.67238280243769
49.33898532268183
48.00557609546627
46.67215474354465
45.33872091702428
44.00527432687448
57.33919754171423
56.00585391174342
54.67249990339215
53.33913535689679
52.00576004201255
50.6723736695448
49.33897590708087
48.00556639910582
46.67214479157844
45.33871076083641
44.00526404638127
57.33946800816619
56.00612691904739
54.67277790194925
53.33942061194724
52.00605453085137
50.67267896778781
49.33929306263785
48.00589579475767
46.67248600010181
45.33906240048969
44.00562364911826
57.33941230652618
56.00607065255836
54.67272052231593
53.33936160510086
52.00599343679322
50.67261540350642
49.33922674873517
48.0058265859905
46.67241391939853
45.33898767509819
44.00554674636203
57.33936023919984
56.0060180904814
54.67266698709159
53.33930665194153
52.00593667350493
50.67255651186978
49.3391655086794
48.0057629025428
46.67234785180337
45.33891946671788
44.00547685300594
57.33931272213751
56.00597014954612
54.67261821396733
53.33925667012574
52.00588515588908
50.67250320011087
49.33911023457045
48.00570561121281
46.67228862606322
45.33885855121673
44.00541467609823
57.33927055140099
56.00592762443256
54.67257499433448
53.33921244482272
52.00583965848659
50.67245622590966
49.33906165896053
48.00565540912591
46.67223689183041
45.33880551761795
44.00536073080506
57.33923440204927
56.0058911874339
54.67253799451495
53.3391746323282
52.00580082231441
50.67241620830855
49.33902037068268
48.00561284524158
46.67219314746732
45.33876080258112
44.00531538159797
57.33920482949476
56.00586139052485
54.67250775925821
53.3391437657087
52.005769163371
50.67238363976707
49.33898683108413
48.00557834128596
46.67215776602711
45.33872472153456
44.00527887832325
57.33918227229662
56.00583866876946
54.67248471637335
53.33912026125684
52.00574508148857
50.67235889793847
49.33896138917441
48.00555221059716
46.67213101794971
45.33869749515299
44.00525138612474
57.33916705549446
56.00582334415188
54.67246918154649
53.33910442476627
52.00572886850343
50.67234225611774
49.33894429465138
48.00553467391325
46.6721130896442
45.33867927058081
44.00523300894612
57.33915939375056
56.00581562909164
54.67246136259306
53.3390964568657
52.00572071498302
50.67233389162298
49.33893570812552
48.0055258715316
46.6721040975542
45.33867013723442
44.00522380674946
57.33940982617184
56.00606808480249
54.67271778101911
53.33935860687397
52.0059901029281
50.67261166254211
49.33922253981003
48.00582186306126
46.67240865630063
45.33898187127149
44.00554043286913
57.33935845778627
56.0060162670194
54.67266508034459
53.3393046223967
52.00593448448014
50.67255413089597
49.3391629092173
48.00576006605565
46.67234477015592
45.33891614479997
44.00547331139039
57.33931036928426
56.00596778395119
54.67261582355041
53.33925424414156
52.00588268562423
50.67250067960943
49.33910766138693
48.00570298718096
46.67228595805447
45.3388558518449
44.00541196430633
57.33926642258394
56.0059234984701
54.67257087495159
53.33920833743829
52.00583557094399
50.67245216906871
49.33905764710808
48.00565146016796
46.67223302723697
45.33880176210612
44.00535711176361
57.33922737173546
56.00588416383219
54.67253098580908
53.33916764955922
52.00579388059575
50.67240932778785
49.3390135771737
48.00560617046081
46.67218662882792
45.33875448252397
44.00530930647571
57.33919386015834
56.00585042151478
54.6724967933768
53.33913281059938
52.00575823366107
50.67237275887587
49.33897603258665
48.00556766972905
46.67214727711095
45.3387144815988
44.00526896311544
57.3391664202445
56.00582280137915
54.67246882218524
53.33910433644294
52.00572913335051
50.67234294801175
49.33894547579251
48.00553639076301
46.67211536836393
45.33868211226328
44.00523638509014
57.33914547446336
56.00580172326523
54.67244748661133
53.33908263278468
52.00570697293371
50.67232027170272
49.33892226162611
48.00551266137713
46.67209119786072
45.3386576319596
44.00521178747358
57.33913133720493
56.00578749923578
54.67243309391927
53.33906799934805
52.00569204148945
50.67230500488014
49.33890664700458
48.00549671636563
46.67207497414137
45.33864121913817
44.00519531549
57.33912421672753
56.0057803358284
54.67242584711381
53.33906063362216
52.00568452878382
50.6722973271382
49.33889879869193
48.00548870688562
46.67206683001667
45.33863298578031
44.00518705833638
57.33935817898246
56.00601589568487
54.67266452498524
53.3393037938451
52.0059332976783
50.67255250738145
49.33916078046787
48.00575737776683
46.6723414874026
45.33891225787081
44.00546884187672
57.339310592106
56.00596795426403
54.67261588943972
53.33925415502405
52.00588239326194
50.67250013951514
49.33910683470314
48.00570184306427
46.67228447652721
45.33885402698246
44.00540980751727
57.33926598109781
56.00592303132399
54.67257035693831
53.33920774431849
52.00583488008088
50.67245136022943
49.33905670346199
48.00565036948669
46.67223178326726
45.33880036604324
44.00535557370269
57.33922515929828
56.00588194119377
54.67252874341746
53.33916537916492
52.00579157591078
50.67240698514767
49.33901119619262
48.00560375466249
46.67218418622121
45.33875202608249
44.00530685446728
57.33918884256111
56.00584539931332
54.67249176316901
53.33912777134892
52.00575318778279
50.67236771320105
49.3389709991631
48.00556266641071
46.67214232789075
45.33870961664351
44.00526421846899
57.33915764517568
56.0058140186168
54.67246002615077
53.3390955257181
52.00572031258045
50.6723341295903
49.33893668124932
48.00552765177052
46.67210672728395
45.33867362216093
44.00522810916015
57.3391320780425
56.00578830814526
54.67243403747386
53.3390691409798
52.00569343957651
50.6723067104712
49.3389087011416
48.0054991470381
46.6720777929952
45.33864441816446
44.00519886402423
57.33911254838493
56.00576867314624
54.67241419827459
53.33904901172178
52.00567295396243
50.67228582832394
49.33888741483871
48.00547748760091
46.67205583550034
45.33862228603198
44.00517673163787
57.33909936035027
56.00575541599663
54.67240080727615
53.33903543091812
52.00565914058386
50.67227175717173
49.33887308255565
48.00546291667543
46.67204107778013
45.33860742545139
44.00516188580355
57.33909271595527
56.00574873739458
54.67239406246792
53.33902859232547
52.00565218726409
50.67226467701256
49.33886587440387
48.00545559232163
46.67203366368634
45.33859996407488
44.00515443634093
57.33931390969533
56.00597118923494
54.6726189594532
53.33925697855405
52.00588489062372
50.67250223459805
49.33910845756468
48.00570293346122
46.67228498834316
45.33885393335888
44.00540910630781
57.33926951518319
56.00592651593305
54.67257374249554
53.33921098121283
52.00583791904531
50.67245415317061
49.33905920483943
48.00565253829014
46.67223358556927
45.33880177801064
44.00535658483943
57.33922784380561
56.00588459885535
54.67253134720254
53.33916790176607
52.00579398983314
50.67240926305558
49.33901331157067
48.00560568281863
46.67218590562027
45.33875351994709
44.00530811252332
57.33918966684702
56.00584621022443
54.67249254737213
53.33912851563411
52.00575387922243
50.67236833941715
49.33897154872438
48.0055631293658
46.67214269642556
45.3387098858266
44.00526438702268
57.33915566678255
56.00581203233137
54.67245802466848
53.33909350290818
52.00571826406718
50.67233205332187
49.33893457804174
48.00552552580689
46.67210458654146
45.33867147873035
44.00522597941585
57.3391264321823
56.00578265279452
54.67242836459261
53.33906344539418
52.00568772032101
50.67230097201549
49.33890295445369
48.00549341042912
46.67207209268719
45.33863878852065
44.00519334738527
57.33910245475919
56.00575856194884
54.67240405455451
53.33903882570608
52.0056627234827
50.67227556103521
49.3388771301433
48.00546721817867
46.67204562833802
45.33861220284194
44.0051668485627
57.33908412796539
56.00574015175015
54.67238548338913
53.33902002769127
52.00564365021448
50.67225618728069
49.33885745929373
48.00544728725599
46.67202551226594
45.3385920176127
44.00514675286711
57.33907174659031
56.00572771563102
54.67237294172504
53.33900733755635
52.00563078045369
50.67224312231576
49.33884420274662
48.00543386524792
46.67201197619785
45.33857844618279
44.0051332530432
57.33906550689133
56.00572144883144
54.67236662270972
53.33900094517372
52.00562429947171
50.67223654532791
49.33883753197924
48.00542711419754
46.67200517100067
45.33857162659488
44.00512647289215
57.33927770312185
56.00593464365376
54.67258174875256
53.33921880294425
52.00584549105384
50.67246140847828
49.33906607587969
48.005658959036
46.67223949460168
45.33880712240725
44.00536132461314
57.33923588581051
56.0058926057985
54.67253928274125
53.33917572716416
52.00580166317894
50.67241673895757
49.33902054145201
48.00561261589079
46.6721924905577
45.33875970720566
44.00531385715151
57.33919659026673
56.00585311563657
54.67249941551132
53.33913532483176
52.00576060448247
50.67237495181388
49.33897801520885
48.00556941304406
46.67214875733792
45.33871568221215
44.00526987699673
57.33916055311698
56.00581691064208
54.67246288597987
53.33909833640793
52.00572305635379
50.6723367878464
49.3389392347982
48.00553008131412
46.6721090141421
45.33867574920829
44.00523006190392
57.33912842912094
56.00578464551801
54.67243034852088
53.33906541524601
52.00568966983523
50.67230289375504
49.33890483971503
48.00549524927334
46.672073874101
45.33864050070455
44.00519497815284
57.33910078531754
56.00575688661765
54.67240236793891
53.33903712339652
52.00566100253541
50.67227382043424
49.33887537123116
48.00546544503791
46.67204384810074
45.33861042589973
44.00516508864559
57.3390780972156
56.00573410840524
54.67237941646898
53.33901392941175
52.00563751749706
50.67225002314717
49.33885127409441
48.00544109967112
46.67201935001246
45.33858591778411
44.00514076183545
57.33906074653266
56.00571669144139
54.67236187225184
53.33899620754841
52.00561958335225
50.67223186284021
49.33883289917891
48.00542255130474
46.67200070236368
45.33856728036885
44.00512228043793
57.33904902001515
56.00570492141248
54.6723500187788
53.33898423782568
52.00560747517884
50.67221960796226
49.33882050640321
48.00541004925198
46.67198814169232
45.33855473526583
44.00510984915049
57.33904310893389
56.00569898878955
54.6723440448735
53.33897820648252
52.00560137557346
50.6722134362757
49.33881426737619
48.0054037575532
46.6719818230155
45.33854842705462
44.00510360083959
57.33925009371014
56.00590678682367
54.67255340714647
53.33918975967701
52.00581556077164
50.67243044924734
49.3390340019113
48.00562575401229
46.67220522506106
45.33877195029128
44.00532551769911
57.33921022116941
56.00586673595727
54.67251301172819
53.33914887770823
52.00577408662184
50.67238832570351
49.33899123190439
48.00558241162427
46.67216146522692
45.33872801641424
44.00528174621976
57.33917272004481
56.00582907733411
54.67247504944588
53.33911048827245
52.0057351804733
50.67234885829922
49.33895121436926
48.00554192058812
46.67212065130131
45.33868711060102
44.00524106340698
57.33913830038804
56.00579452175776
54.67244023238727
53.3390753048437
52.00569955666595
50.67231276093332
49.33891466054651
48.00550498628763
46.67208347862309
45.3386499130339
44.00520412839349
57.339107595584
56.00576370261938
54.67240919376963
53.33904395992214
52.00566784592035
50.67228066083978
49.33888219174855
48.0054722209194
46.67205054635041
45.33861700527782
44.00517150012778
57.33908115596221
56.00573716972948
54.67238248221238
53.33901699996834
52.00564059115248
50.67225309549452
49.33885433755515
48.00544414314897
46.67202235870784
45.33858887319333
44.00514364195308
57.33905944437336
56.00571538511365
54.6723605579701
53.33899488228801
52.00561824521709
50.67223051141158
49.33883153583538
48.00542117949828
46.67199932783539
45.33856591128334
44.00512092741487
57.33904283330709
56.00569872033305
54.67234379065576
53.33897797335202
52.00560117000862
50.67221326419254
49.33881413388858
48.00540366668822
46.67198177739662
45.33854842757495
44.00510364635851
57.339031603145
56.00568745491142
54.67233245801255
53.33896654807732
52.00558963640449
50.67220161926828
49.33880239009729
48.00539185428268
46.67196994625409
45.33853664831754
44.00509201058463
57.33902594119077
56.00568177550193
54.67232674535141
53.33896078966297
52.00558382461673
50.67219575286893
49.33879647559756
48.00538590711519
46.67196399167455
45.33853072195003
44.00508615851868
57.33923147366549
56.00588800529426
54.6725343095316
53.33917020535496
52.00579543057847
50.67240965343534
49.33901248856455
48.00560351773702
46.67218231557025
45.33874848027806
44.00530166916282
57.33919290266168
56.00584928338107
54.67249529730423
53.33913078637941
52.00575552274142
50.67236922002379
49.33897154881178
48.00556215643507
46.67214069119899
45.33870683095388
44.00526031559132
57.33915660322992
56.00581285060156
54.67245860858274
53.33909374056407
52.00571805064678
50.6723312946229
49.33893319483258
48.00552345897969
46.67210180287761
45.33866797690477
44.00522179566826
57.33912326743298
56.00577939969352
54.67242493725585
53.33905976303404
52.00568371017633
50.67229657267685
49.33889811961022
48.00548811297129
46.67206632898713
45.33863258258639
44.00518675445767
57.33909351412701
56.00574954954622
54.67239490211035
53.3390294720097
52.00565311804959
50.67226566788397
49.33886693163614
48.00545671880788
46.67203485826085
45.33860122088181
44.00515574431817
57.33906788223407
56.00572383865813
54.6723690406595
53.33900340319023
52.00562680694392
50.67223910822788
49.33884015201296
48.00542978799901
46.67200788941417
45.33857437410619
44.00512922728188
57.3390468259235
56.00570272050521
54.67234780488354
53.33898200604802
52.00560522251766
50.67221733389206
49.33881821340481
48.00540774326785
46.67198583247719
45.33855243659957
44.00510757887741
57.33903071132703
56.00568656043047
54.67233155846571
53.33896564157786
52.00558872182973
50.67220069649302
49.33880146020541
48.00539091974709
46.67196901107326
45.3385357180959
44.00509109254235
57.33901981442209
56.00567563367841
54.67232057512598
53.33895458107227
52.00557757268909
50.67218945912129
49.33879014936807
48.00537956666793
46.67195766500232
45.33852444719525
44.00507998393141
57.33901431975727
56.00567012423993
54.67231503770257
53.33894900555099
52.00557195353476
50.67218379676173
49.33878445143822
48.00537384905401
46.67195195261769
45.33851877441154
44.00507439458648
57.33922210006225
56.0058785520273
54.67252470043058
53.33916037133451
52.00578531340713
50.67239920972187
49.33900169394226
48.00559237114798
46.67217084345336
45.33873674035714
44.00528975342202
57.33918418120627
56.00584049574537
54.67248638049226
53.33912168383003
52.00574618769468
50.67235961901979
49.33896166528921
48.00555199433109
46.67213027837484
45.33869622218555
44.00524959478417
57.33914848413126
56.00580467721382
54.67245032950017
53.33908531018697
52.00570943217038
50.67232246309045
49.33892414021025
48.00551418915887
46.67209234644859
45.33865838548175
44.00521214548652
57.33911569182461
56.00577178005303
54.67241723215088
53.3390519362502
52.00567573336178
50.67228842799778
49.33888980236924
48.00547963409924
46.67205771727208
45.33862388645505
44.00517804308383
57.33908641579483
56.00574241581347
54.67238769991876
53.33902217298785
52.00564570085321
50.67225812050683
49.33885925364051
48.00544892339142
46.67202697404076
45.33859329324319
44.00514783614476
57.33906118917979
56.00571711725247
54.67236226466915
53.33899655060804
52.00561986207001
50.6722320636918
49.33883301068496
48.00542256471311
46.67200061239964
45.33856708599978
44.00512198557475
57.33904046173503
56.00569633349367
54.67234137415853
53.33897551456554
52.00559865895075
50.67221069442174
49.33881150337916
48.00540097865804
46.67197904103957
45.33854565863615
44.00510086747681
57.33902459635105
56.00568042670497
54.6723253890314
53.33895942303095
52.00558244603305
50.67219436219359
49.33879507450699
48.0053844993708
46.67196258332544
45.33852932145049
44.00508477673963
57.33901386675438
56.00566966993944
54.67231458093821
53.338948545417
52.00557148951047
50.67218332882859
49.33878398018507
48.00537337576589
46.67195147934224
45.33851830399658
44.0050739306821
57.33900845608262
56.00566424582132
54.67230913144116
53.33894306160757
52.00556596688008
50.6721777686213
49.33877839058039
48.00536777286001
46.67194588786226
45.33851275767638
44.00506847222778
42.6726290394764
42.67249308098587
42.67237057500933
42.67226208402897
42.67216779276698
42.6720876408322
42.67202142744367
42.67196889058415
42.67192976454823
42.67190382014122
42.6718908913302
42.67249021571468
42.67237402552869
42.6722684624757
42.67217426833607
42.67209184878458
42.67202137411984
42.67196286239776
42.67191624492277
42.67188141576175
42.67185826761454
42.67184671638039
42.672265484299
42.67217461762775
42.67209295207519
42.67202103215017
42.67195918597524
42.67190758912136
42.6718663169045
42.67183538535265
42.67181478184346
42.67180448666555
42.67209005499062
42.67201916823915
42.67195635865748
42.67190205569077
42.67185654305656
42.67181999915834
42.67179252982403
42.6717741935101
42.67176501947093
42.67189860237212
42.67185076162967
42.67181049191273
42.67177804233585
42.67175358243411
42.67173722222449
42.67172902699449
42.67180590884823
42.67177005271133
42.67174106467935
42.67171915773129
42.67170447797564
42.67169711633684
42.67173571075831
42.67170956424981
42.67168975910763
42.67167646575633
42.67166979271835
42.67168393192562
42.67166578774884
42.67165359192897
42.67164746458941
42.67164755169409
42.67163617114112
42.67163044949316
42.67162443285298
42.67161897976355
42.67161320736233
42.67236471716178
42.67216839626963
42.67208330021979
42.67201544558132
42.67195366010033
42.67201045207172
42.67195120313396
42.67189694256249
42.67184833773064
42.67194992209872
42.67189755883836
42.67184935791229
42.67180597985606
42.6717679572856
42.67190167148876
42.67185462259962
42.67181112336704
42.67177182040187
42.67173724801658
42.67170783834248
42.67186561008622
42.6718224309275
42.67178236954555
42.67174605756716
42.67171402605448
42.67168671165939
42.67166446377055
42.67184163807497
42.67180098263199
42.67176317000526
42.67172881981242
42.67169845889887
42.67167252501865
42.67165137178956
42.6716352740408
42.67182967441735
42.67179026385318
42.67175356246886
42.67172018330034
42.67169065049095
42.67166540178703
42.67164479243029
42.6716290996085
42.67161852678226
41.3558364441884
41.35569540191904
41.35556928174177
41.3554583608448
41.35536254966444
41.35528154100924
41.3552149229745
41.35569246591755
41.35557304419562
41.35546525641988
41.35536965206376
41.35528644541808
41.35521562974856
41.35515706814979
41.35511056273513
41.35507590530377
41.35505291297385
41.35504145195195
41.35556334404002
41.35546226152445
41.35537022017127
41.35528792367833
41.35521578197311
41.35515399558947
41.35510262607128
41.35506165198488
41.35503101165011
41.355010634351
41.35500046186221
41.35544956136569
41.35536379088202
41.35528504826452
41.35521410996122
41.35515150212289
41.35509756090478
41.35505248519118
41.35501638031158
41.35498929265049
41.35497123577158
41.35496220894517
41.35527796660097
41.35521026627905
41.35514884866975
41.35509430098582
41.35504704255187
41.35500736302087
41.35497545538643
41.35495144305744
41.35493540092019
41.35492737065125
41.355204854081
41.35514614894446
41.35509255179878
41.35504467496352
41.35500298445074
41.3549678267651
41.35493945308016
41.35491803978382
41.35490370493654
41.35489652051986
41.35514435638355
41.35509280283253
41.35504546771611
41.35500296701012
41.35496578954432
41.35493431515329
41.35490883188445
41.35488955119459
41.35487662049702
41.3548701327197
41.35509629526957
41.35505023205914
41.3550077326659
41.35496940578783
41.35493574873314
41.35490715927605
41.35488394762322
41.35486634746191
41.35485452538901
41.35484858827157
41.35506047032906
41.35501838823286
41.35497941142874
41.35494413772604
41.35491306546155
41.35488660101869
41.35486506708645
41.35484871070292
41.35483771037806
41.35483218180023
41.35499720677367
41.35496052789048
41.35492725188362
41.35489787537463
41.354872808272
41.35485237967369
41.35483684396866
41.3548263864466
41.35482112790563
41.35495108663317
41.35491879796343
41.35489026091104
41.35486588650198
41.35484600647735
41.35483087844374
41.35482069073566
41.3548155664767
41.3551622608746
41.35512315445391
41.35509727629889
41.35508439637474
40.05568656675254
40.05554275465303
38.75536463708205
40.05541512778665
38.75523820568528
40.05530364629757
38.75512850392909
40.05520793177123
38.75503487005277
40.05512742796164
38.75495651482741
40.05506151734188
38.75489263628271
40.05500960202139
52.00628076579959
50.67291717547324
49.33954492315382
48.00616249372624
49.3394502220223
48.00606152984025
46.67266051748975
45.33924538624001
46.67256305875327
45.33914264467055
44.00570661823075
44.0056124112561
42.67225332360747
42.67215635998937
41.35535115290988
41.355267880955
38.75478105475091
40.05493314654298
38.75476893390326
40.05553978697868
40.05541911244035
40.05531089744162
38.75513590328466
40.05521547708987
38.75504262409368
40.05513286409561
38.75496227239426
40.05506287314844
38.75489449499286
40.05500521640782
38.75483886785113
40.05495957374426
38.75479496440564
40.05492564246197
38.75476240217302
40.05490317114094
38.75474087330247
40.05489198153765
38.75473016363865
40.05540919316181
40.05530792836062
40.05521622737036
40.05513464602733
38.75496426575032
40.05506345154645
38.75489540977143
40.0550027150536
38.75483688829861
40.05495238641652
38.75478854899366
40.05491235209008
38.75475019685554
40.05488247807971
38.75472163576097
40.0548626405602
38.7547026973076
40.05485274654468
38.7546932598312
40.05529493298058
40.05520971021231
40.05513183287192
40.05506197187682
40.0550005496671
38.75483503833547
40.05494780665068
38.7547844666812
40.05490385766648
38.75474244080371
40.05486873764286
38.75470893188357
40.05484243694757
38.75468388092837
40.0548249275509
38.75466722404085
40.05481618127683
38.7546589097475
40.05519673339485
40.0551245747106
40.05505808350323
40.05499797762581
40.054944766105
40.05489879524328
38.75473780139447
40.05486028979625
38.75470113805646
40.05482938773795
38.7546717693
40.05480616822164
38.75464973401321
40.05479067297387
38.75463504435125
40.05478292164019
38.75462770059454
40.05511409034549
40.05505239383628
40.05499511197424
40.05494296884697
40.05489651516457
40.05485615910293
40.05482219537507
38.75466509486566
40.05479483087798
38.75463918569096
40.05477420609792
38.75461968153023
40.05476041200702
38.75460664827486
40.05475350249305
38.75460012327996
40.05499290718991
40.05494290225833
40.05489710041538
40.05485606673351
40.05482024226363
40.05478996391304
40.05476548284994
38.75461155159108
40.05474698046823
38.75459411171494
40.05473458138702
38.75458243306197
40.05472836324948
38.7545765787528
40.05494580439256
40.05490135750421
40.05486043034342
40.05482358755996
40.0547912852579
40.05476388418225
40.05474166265699
40.05472482830019
38.75457332646503
40.05471352788147
38.75456271217104
40.05470785493826
38.75455738556444
40.05491078315458
40.05487035023654
40.05483296128374
40.05479917434322
40.05476945072432
40.05474416357983
40.05472360697247
40.05470800450006
40.05469751681404
38.75454772410507
40.05469224757822
38.75454278755495
41.35503670038201
40.05488758859757
40.05484975793514
40.05481467108839
40.05478287894417
40.05475484355747
40.05473094386614
40.05471148229578
40.05469669138394
40.0546867397585
40.05468173698977
38.75453296083531
41.3550248509703
40.05487603857339
41.35498663184879
40.05483948692137
40.05480553401809
40.05477472638916
40.05474752567994
40.05472431299903
40.05470539433037
40.05469100617658
40.05468132077541
40.0546764503996
38.75484249550517
40.05497115770489
38.75480546446333
40.0549457682218
38.75550816673693
37.45529883103651
57.33966888148652
57.33959518496894
56.00625564834863
54.67290970295029
57.33952631298035
56.0061858550816
54.6728380843103
53.33948262217748
52.00611889685385
57.33946351069389
56.00612227025461
54.67277295243672
53.33941521655795
52.00604855177973
50.67267227883228
49.339285554891
54.67271535170369
53.33935574201246
52.00598666722856
50.67260753150244
49.33921760514864
48.00581603968548
46.67240189077008
50.67255263063007
49.33916018992156
48.00575598937701
46.67233924156593
45.33890912756125
44.00546484125046
48.00570761028136
46.6722889429407
45.33885711321111
44.00541148423203
45.33881813301442
44.00537161631726
42.67195150288978
42.67191117086404
42.67188442258534
56.00633040508023
54.67298656519566
53.33963691443086
53.33955693376185
52.00619670881287
50.67282816966208
50.67274613996721
49.33936338533697
48.00596947248997
48.00588738391955
46.67247663542882
45.3390520751334
45.33897415145284
44.00553179814151
42.67207385119272
42.67200564463572
41.35519936778837
41.3551451918845
40.05504640633706
40.0549930857762
41.35510495487889
40.0549535983755
41.35507832638195
40.05492751961371
40.05491455530142
37.45462648335446
36.15443494071219
37.45460359547843
36.15441414376139
37.45459224220557
36.15440383715534
38.75536169101096