/*--------------------------------*- C++ -*----------------------------------*\
  =========                 |
  \\      /  F ield         | OpenFOAM: The Open Source CFD Toolbox
   \\    /   O peration     | Website:  https://openfoam.org
    \\  /    A nd           | Version:  7
     \\/     M anipulation  |
\*---------------------------------------------------------------------------*/
FoamFile
{
    version     2.0;
    format      ascii;
    class       surfaceScalarField;
    location    "0";
    object      phi;
}
// * * * * * * * * * * * * * * * * * * * * * * * * * * * * * * * * * * * * * //

dimensions      [0 3 -1 0 0 0 0];

internalField   nonuniform List<scalar> 
36840
(
0.0001620329535967358
0.0001470907986296898
1.841422835163669
-0.0001784742493597946
-1.841396382674489
-0.0001571019920518781
1.841404788418373
0.0001379027426131822
0.0001220463749948214
-0.00015362720971488
-1.841382524785438
-0.0001285855408141855
0.000144486249766373
0.0001272957161239534
1.841429977130055
-0.0001349377219003398
1.841389755857463
0.0001156046422892133
0.0001025505797827012
-0.000130671670623105
-1.841370397174686
-0.0001068422341390371
1.841411371925531
0.0001213119249545601
0.0001067900475132178
-0.0001118152954450392
0.0001263492693013303
0.0001104253818365663
1.841435311757927
-0.0001162282324404183
1.841395463140081
9.981121126181262e-05
9.090146265120525e-05
-1.841376341211472
-9.422995890417893e-05
1.841416409269868
0.0001042178556289739
9.389258599159467e-05
-9.774464444487533e-05
0.0001079807026276191
9.628944386008671e-05
1.84143917423139
-0.0001006858372227141
1.841381028424024
7.995182517597144e-05
7.881496541526402e-05
-9.512399870950026e-05
-1.841363619202056
-8.105201381170041e-05
1.84139986978446
8.355536490967097e-05
8.117804816265583e-05
-8.37635593075251e-05
1.841420172116855
8.687330920544809e-05
8.320988761312286e-05
-8.616767183866638e-05
8.961056022591749e-05
8.467334340396231e-05
1.841441879533932
-8.801061665053541e-05
1.841367254486457
6.160888837263573e-05
6.981171132278716e-05
-7.63165408037772e-05
-1.841351005664592
-7.135288077413477e-05
1.841384631963777
6.434611884497197e-05
7.16276923594448e-05
-7.33994601042741e-05
1.841403187728758
6.702389548006771e-05
7.327895912365733e-05
-7.530325293916188e-05
1.841422909367921
6.944115959313248e-05
7.458951734915543e-05
-7.687900519215463e-05
7.136777991935067e-05
7.536400764480676e-05
1.841443706510248
-7.791836809443271e-05
1.841353632891298
4.461927011334427e-05
6.328847233305636e-05
-5.898166170006303e-05
-1.841338167563023
-6.439140904492804e-05
1.841369991716888
4.650581522944803e-05
6.4661515364461e-05
-6.591726473459416e-05
1.841387309740412
4.845560125943385e-05
6.597740955984729e-05
-6.740491373591418e-05
1.841405604992886
5.034144957520714e-05
6.710266669531778e-05
-6.871547149498427e-05
1.841424835988221
5.201417718581051e-05
6.78870004264806e-05
-6.969101167442265e-05
5.330508540659559e-05
6.816728671767944e-05
1.841444889631546
-7.015823408831332e-05
1.841339886122483
2.880763109218512e-05
5.875785846600723e-05
-4.290071064836454e-05
-1.841324960483462
-5.959041791467953e-05
1.841355519436433
2.992086459570208e-05
5.97907516350915e-05
-6.072565706460864e-05
1.841371941502899
3.11374365847573e-05
6.083988936924596e-05
-6.189357541330774e-05
1.841389195588746
3.238706825680074e-05
6.180185026494144e-05
-6.298740116759197e-05
1.841407277720485
3.358507071272677e-05
6.255796930330134e-05
-6.388372043124486e-05
1.84142612689643
3.463290747873771e-05
6.29769834858962e-05
-6.444488793277969e-05
3.542011526747072e-05
6.29191536111632e-05
1.8414456157386
-6.452302408861394e-05
1.84132591414064
1.39953736586271e-05
5.584186172566975e-05
-2.785397394688963e-05
-1.841311383201372
-5.65142006269334e-05
1.841340999356007
1.446463693110042e-05
5.662081484354534e-05
-5.736303302685778e-05
1.841356736008379
1.501129152553758e-05
5.7471596667203e-05
-5.82986741193281e-05
1.841373191134608
1.560701421525587e-05
5.831300160252795e-05
-5.92377035601998e-05
1.841390393591183
1.621655369801503e-05
5.90491283247726e-05
-6.008106846624427e-05
1.841408325557268
1.679762248856107e-05
5.957121513944288e-05
-6.071573120434186e-05
1.84142691410424
1.730125759229677e-05
5.976052286880161e-05
-6.101741830835102e-05
1.767285615983366e-05
5.949249361947295e-05
1.841446023614004
-6.085474273958008e-05
1.841311753289219
5.426480597035018e-05
-1.362528581694278e-05
-1.841297541763637
-5.485104567069008e-05
1.841326383403882
5.484946567184617e-05
-5.548420366148299e-05
1.841341546010582
5.55543832848834e-05
-5.625235137074468e-05
1.841357331731061
5.6316057552408e-05
-5.709048482569512e-05
1.841373800674134
5.705607532542402e-05
-5.791800249710376e-05
1.841390974659902
5.768232953786674e-05
-5.863975998718932e-05
1.841408829192424
5.809100975793258e-05
-5.914791811787468e-05
1.841427285702764
5.816958451276834e-05
-5.93248357364738e-05
5.780095798739732e-05
1.841446204830177
-5.904722795690988e-05
1.841373714858371
0.000138023365612771
-1.841354210246976
0.0001384527606893997
-0.0001462556755789323
-0.0001497250620115863
1.841396536614155
0.0001462686478959085
0.000146922420728091
-0.0001600270393566916
-0.0001559857846231691
0.0001539627535865106
0.0001548466087013309
1.841422969820265
-0.0001699409920757681
-0.0001653015759494947
1.841278280781594
9.086716669060036e-05
8.761971338497119e-05
-9.542706560239367e-05
-9.149932630084435e-05
1.841287005343176
9.205690083071603e-05
8.875084633075403e-05
-9.676423847742341e-05
-9.276806943145946e-05
1.841296305893565
9.441418023925507e-05
9.099185888317129e-05
-9.941926489886996e-05
-9.528732356045592e-05
1.841306484297633
9.78918560674981e-05
9.429761965358145e-05
-0.0001033502927798158
-9.901758618520224e-05
1.841317856540414
0.000102412311719036
9.85938997263512e-05
-0.0001084864805655844
-0.0001038919728227673
1.841330752856109
0.0001078593252024298
0.0001037696578407576
-0.0001147182846191172
-0.0001098070134116559
1.84134551323622
0.0001140675810425089
0.0001096670901336249
-0.0001218846043684606
-0.0001166104463575572
1.841362476410112
0.0001208104173620263
0.0001160699957029274
-0.000129757202455375
-0.0001240863839200301
1.841381960140652
0.000127786895783611
0.000122691484253013
-0.0001319387440048558
1.841404230719832
0.0001346099996197832
0.0001291627360495269
-0.000139774665981918
0.0001407986878043448
0.0001350254058632765
1.841429460180663
1.84127947051573
8.467410614880347e-05
8.084142740624543e-05
-8.427761198501797e-05
1.841289362622575
8.571053117158898e-05
8.176725906139402e-05
-8.531299407366056e-05
1.841299783569383
8.775979278177093e-05
8.35968663841933e-05
-8.73634241074226e-05
1.84131100475328
9.077241346954181e-05
8.628412517910291e-05
-9.038586470211385e-05
1.841323303553921
9.466850090934416e-05
8.975488260380892e-05
-9.43098707517195e-05
1.841336961111949
9.933118602134515e-05
9.390121618477778e-05
-9.903063365359531e-05
1.84135225607254
0.0001045983996164067
9.857423941639328e-05
-0.0001044000172001344
1.841369452888543
0.0001102536524091955
0.0001035760411955072
-0.0001102160910281474
1.841388783244469
0.0001160169105580912
0.000108651722707665
-0.0001162120921236456
1.841410419408007
0.0001215372178599912
0.0001134829957532892
0.0001263893733185366
0.0001176853976829761
1.841434439042217
1.841280506940763
7.705145255151639e-05
7.463925561676301e-05
-7.768227182072998e-05
1.841291411884214
7.793491586483005e-05
7.538846074339726e-05
-7.851778705969537e-05
1.841302796190092
7.967825119201777e-05
7.686495249461499e-05
-8.016771479191243e-05
1.841314900840715
8.223243387781702e-05
7.902341193752903e-05
-8.258808112264654e-05
1.841327966238993
8.551942154171127e-05
8.179224002904325e-05
-8.570855717744492e-05
1.84134222832553
8.942705968231124e-05
8.506947417683576e-05
-8.942743269813036e-05
1.841357911325304
9.380288699339076e-05
8.871784564234986e-05
-9.360533124436188e-05
1.84137521614673
9.844751406262731e-05
9.255953931384171e-05
-9.805822061283943e-05
1.841394303551773
0.0001031085867943881
9.637150131425162e-05
1.841415271563477
0.0001074767653295491
9.988248999803798e-05
0.0001111855909363903
0.000102773438949
1.841438127290303
1.841281390404049
6.820406229096193e-05
6.909177119648706e-05
-7.179351418226456e-05
1.841293155219518
6.893929832549984e-05
6.969218596961693e-05
-7.246138180962933e-05
1.841305350372764
7.038741678400119e-05
7.087186927381373e-05
-7.377618644963712e-05
1.84131818782835
7.250228773614244e-05
7.258748964034112e-05
-7.569479725333409e-05
1.841331873877166
7.521127015814593e-05
7.477154215962382e-05
-7.81494378000249e-05
1.841346604152875
7.841140247897381e-05
7.732960650281926e-05
-8.104422313439569e-05
1.841362555952358
8.196492757406282e-05
8.013718072419351e-05
-8.425101881925908e-05
1.841379877219424
8.569477173601194e-05
8.303658984232243e-05
-8.760511277929846e-05
1.841398671730289
8.938086484548821e-05
8.583467661540367e-05
1.841418980389086
9.275848147403213e-05
8.830221298947744e-05
9.552006424939918e-05
9.017618584294951e-05
1.841440759175264
1.841282125640092
5.833224957505584e-05
6.425835705517669e-05
-6.667091352901675e-05
1.841294603337971
5.892664064788278e-05
6.473628626224581e-05
-6.720132485833584e-05
1.841307465243716
6.009534801876288e-05
6.567213188648459e-05
-6.824196716337346e-05
1.841320896810785
6.179716504020434e-05
6.702518550127949e-05
-6.975162819600173e-05
1.841335074009464
6.39677434008947e-05
6.873276360406281e-05
-7.166643380633776e-05
1.841350157677965
6.651685724289329e-05
7.070851469848076e-05
-7.389763592158262e-05
1.841366285796511
6.932530786475317e-05
7.284060627199551e-05
-7.632910327717241e-05
1.841383563312533
7.224200801413415e-05
7.499021675729775e-05
1.841402049346925
7.508197986073539e-05
7.699090095059072e-05
1.84142174197185
7.762620283813238e-05
7.864954318392828e-05
7.96243977654108e-05
7.974971630402328e-05
1.84144256126708
1.841282720031188
4.762818322653687e-05
6.018228424561711e-05
-6.235697829026763e-05
1.841295772045356
4.809021524465606e-05
6.056214891714237e-05
-6.277773597420593e-05
1.841309167060786
4.899731392526966e-05
6.130312948471316e-05
-6.360010924768509e-05
1.841323067389084
5.031479461658582e-05
6.236732088842227e-05
-6.47852770779619e-05
1.841337623123366
5.198884028540203e-05
6.369692622345497e-05
-6.627375549328463e-05
1.841352966128568
5.394462057740617e-05
6.521335409104267e-05
-6.798412065731681e-05
1.841369202496693
5.608425213175041e-05
6.681640247307996e-05
1.841386403284361
5.828503742628443e-05
6.838387748078172e-05
1.841404593569912
6.039856137363112e-05
6.977209414062955e-05
1.84142374016681
6.225134233026697e-05
7.081778284145865e-05
6.364782801206931e-05
7.134197459863745e-05
1.841443738771225
1.841283182063194
3.627425789595521e-05
5.689386049162049e-05
-5.888072756476959e-05
1.841296679144023
3.661222855064869e-05
5.719812866291594e-05
-5.921722095334536e-05
1.841310484541452
3.727493997018898e-05
5.778912666189974e-05
-5.987214843372642e-05
1.841324741434804
3.823542586189879e-05
5.863157535657127e-05
-6.080909818706459e-05
1.841339578903614
3.945204324921993e-05
5.967211762936141e-05
-6.197278741177998e-05
1.841355105760172
4.086725083141118e-05
6.08389889674492e-05
1.841371403281954
4.240634141659064e-05
6.204190645573454e-05
1.841388516808337
4.397646176321836e-05
6.317246104967668e-05
1.841406446350895
4.546633414292964e-05
6.410535344767451e-05
1.841425136652454
4.674718197605898e-05
6.470086120455881e-05
4.767539159654706e-05
6.480892088005526e-05
1.841444467456284
1.841283520033855
2.444312083582652e-05
5.441338109335454e-05
-5.626100704603231e-05
1.841297341855437
2.466411850796757e-05
5.466272079450626e-05
-5.653643032843519e-05
1.841311445027344
2.509706247672807e-05
5.514488101252595e-05
-5.707017353273614e-05
1.841325958052153
2.572354105232597e-05
5.582676330106998e-05
-5.782790142205801e-05
1.841340994111192
2.651521566086154e-05
5.665863029946642e-05
1.841356644850748
2.743309760172798e-05
5.757416752771853e-05
1.841372973402301
2.842683375828719e-05
5.849084771369917e-05
1.841390006680697
2.943421219224805e-05
5.931082359671388e-05
1.841407727198707
3.038116731371922e-05
5.992262022198642e-05
1.841426064862084
3.118259704357827e-05
6.020390695735693e-05
3.174432311215915e-05
6.002560822564439e-05
1.841444889477522
1.84128374103156
1.229900148711758e-05
5.275368273771614e-05
-5.450932404471596e-05
1.841297774799372
1.240815754448866e-05
5.29672814007848e-05
-5.474508618115006e-05
1.841312071505953
1.26218762536738e-05
5.337868959998109e-05
-5.520020800275927e-05
1.841326749726804
1.293082635371667e-05
5.395635891147772e-05
1.841341911993155
1.33206714619547e-05
5.465309479291136e-05
1.841357638586885
1.377173999102132e-05
5.540636279479623e-05
1.841373980780759
1.425870426149519e-05
5.613893935927409e-05
1.841390953635795
1.475038306583239e-05
5.676010454434033e-05
1.841408528628442
1.520980014426623e-05
5.716759167739827e-05
1.841426626588166
1.559465154098479e-05
5.725051044436208e-05
1.585833897350814e-05
5.689342412296117e-05
1.841445111643445
1.841283850187594
5.192216141683616e-05
-5.363207656066833e-05
1.841297988518093
5.211815982368769e-05
-5.384833096906498e-05
1.841312380456017
5.249474734574291e-05
1.841327139571902
5.302117792434027e-05
1.841342363061699
5.365156671643943e-05
1.841358125551139
5.432530991353909e-05
1.841374472459577
5.496787296470571e-05
1.841391413052847
5.549212109201562e-05
1.841408913479874
5.580038453194504e-05
1.841426890275592
5.578744178080793e-05
5.534456508371476e-05
1.841445205008746
0.0001327004684008381
1.841430172756525
-1.841405036922943
0.0001384350579936911
-0.0001414247505760023
1.841279494152502
8.359607166141835e-05
8.201646819522775e-05
-8.76457083636959e-05
1.841289409286489
8.456557826754705e-05
8.300228316926508e-05
-8.873214711477966e-05
1.841299851996624
8.648154159644864e-05
8.495111110358298e-05
-9.088350256547504e-05
1.841311092934802
8.929574785554451e-05
8.781517392515557e-05
-9.405423896204841e-05
1.841323408597262
9.293066196882545e-05
9.151743975621661e-05
-9.816986329760264e-05
1.841337079055791
9.727340754750458e-05
9.594542613453687e-05
-0.0001031196332926231
1.841352381659163
0.0001021682348039119
0.0001009434395652157
-0.0001087471865118133
1.841369579307909
0.0001074081013619158
0.0001063038884367982
-0.0001148396418597329
1.841388901878872
0.0001127263862721114
0.0001117587081012067
-0.000121116180044247
1.841410519629683
0.0001177902782081509
0.000116972469929832
-0.0001272177616606706
0.0001221979902510384
0.0001215393686089905
1.841434508146264
1.841280463659132
7.802101116610288e-05
7.579410048056048e-05
1.841291325249813
7.886796816116603e-05
7.660328048331112e-05
1.841302666202878
8.053844128141918e-05
7.819901570118498e-05
1.841314727848939
8.298381673368741e-05
8.053441216811055e-05
1.84132775134286
8.612694171496856e-05
8.353511073062636e-05
1.841341973883047
8.985734031341508e-05
8.70947449601803e-05
1.841357621525717
9.402540578662386e-05
9.106942754502067e-05
1.8413748975928
9.843620587937056e-05
9.527187152968988e-05
1.841393965770791
0.0001028438669506289
9.946606590918126e-05
1.841414927341731
0.0001069478998232398
0.0001033638045413441
0.0001103932543173869
0.0001066247745526994
1.84143779270201
1.841281310616154
7.110064339762914e-05
7.009027872584301e-05
1.841292995722952
7.182449868501462e-05
7.074682581529408e-05
1.841305111578365
7.324944636841844e-05
7.203809405860311e-05
1.84131787097391
7.532859375203316e-05
7.391924154123068e-05
1.841331481741449
7.79882902694934e-05
7.632012598941603e-05
1.841346141948492
8.112447202560495e-05
7.914213751294406e-05
1.841362032325776
8.459837272261322e-05
8.225450352736881e-05
1.841379305253909
8.823220729461275e-05
8.549061189455664e-05
1.841398069803681
9.180569192324128e-05
8.864512815165426e-05
1.841418372696239
9.505455491385442e-05
9.147294400437743e-05
9.767246612103443e-05
9.369123767299951e-05
1.841440175686962
1.841282034471405
6.301923919238544e-05
6.497997559051799e-05
1.841294420670607
6.362308448615277e-05
6.550740327324673e-05
1.841307190725729
6.480963725152815e-05
6.654162546278066e-05
1.841320530670416
6.653558138225435e-05
6.804055948807989e-05
1.841334617923209
6.873344777162786e-05
6.99391341640877e-05
1.841349615849225
7.130893029263382e-05
7.214722459281029e-05
1.841365666160357
7.413786238430475e-05
7.454738231666982e-05
1.841382878738514
7.706339448532162e-05
7.699282681983288e-05
1.841401318666641
7.989411060329503e-05
7.930633171326917e-05
1.841420990607411
8.240402317483131e-05
8.12808055172809e-05
8.433554781571737e-05
8.268250042422476e-05
1.841441821212527
1.841282638316713
5.395982962688964e-05
6.052072137663345e-05
1.841295607223373
5.444902646445404e-05
6.094143978430111e-05
1.841308916669874
5.540870130935757e-05
6.176362334540151e-05
1.841322728536795
5.680065466591353e-05
6.294824746788654e-05
1.841337193405721
5.856578008960137e-05
6.44355646553861e-05
1.841352444781336
6.062217603396529e-05
6.61438958218237e-05
1.841368591692458
6.286311986759538e-05
6.796844007084337e-05
1.841385709454642
6.515536089789582e-05
6.978049007955261e-05
1.841403828579224
6.733833634367979e-05
7.142755250098036e-05
1.841422922132054
6.922504154971421e-05
7.273497370618998e-05
7.060537892325985e-05
7.350973140292071e-05
1.841442892287233
1.841283127513577
4.410067765874927e-05
5.675519424944354e-05
1.841296566898237
4.448161698669013e-05
5.70901759669791e-05
1.841310308623278
4.522782876883345e-05
5.774227908261776e-05
1.841324493662142
4.630744511072557e-05
5.867549378026864e-05
1.84133924980172
4.767141169721615e-05
5.983515739669289e-05
1.841354685725122
4.925222125716813e-05
6.114738782310211e-05
1.84137088393355
5.096263075628134e-05
6.251868524489474e-05
1.841387892430035
5.269472975765201e-05
6.383601422754737e-05
1.841405715284466
5.431982551313959e-05
6.49677523821613e-05
1.841424302469456
5.568969553347854e-05
6.576594551432842e-05
5.663979462156021e-05
6.607032331169626e-05
1.841443539706539
1.841283508452889
3.361343750732616e-05
5.371391928272049e-05
1.841297313109976
3.389248618645979e-05
5.398260459799076e-05
1.841311388239589
3.443844686486161e-05
5.450338117438702e-05
1.841325857628746
3.522669254607521e-05
5.524294094527703e-05
1.841340830611273
3.621946307945447e-05
5.615108602747696e-05
1.841356396134657
3.736506355302881e-05
5.716062540730375e-05
1.841372616032487
3.859710622577934e-05
5.818753522390806e-05
1.841389517525798
3.983406750322879e-05
5.913163194954848e-05
1.841407085154493
4.097949914203591e-05
5.987805288754077e-05
1.84142525256852
4.192328079000163e-05
6.029986358413331e-05
4.254431259663753e-05
6.026209477256766e-05
1.841443894878054
1.841283787501567
2.266275564011252e-05
5.141783309018017e-05
1.841297859070664
2.284541376890445e-05
5.163822646179259e-05
1.841312176485275
2.320246174552844e-05
5.206345371737599e-05
1.841326850399284
2.37171506065403e-05
5.266239349563985e-05
1.841341976211723
2.436386955160345e-05
5.338841339153078e-05
1.84135762817732
2.510768462116175e-05
5.417958291786817e-05
1.841373852993769
2.590393205046473e-05
5.495920740372632e-05
1.841390662957437
2.669804546413707e-05
5.563688380760823e-05
1.841408028936151
2.742583693550139e-05
5.611030553813679e-05
1.841425873600315
2.8014476555681e-05
5.62680486666519e-05
2.83844164435048e-05
5.599354046381635e-05
1.841444065565632
1.841283970159722
1.140702516977413e-05
4.988052519649955e-05
1.841298216118645
1.149730136543552e-05
5.006943720329324e-05
1.841312691174167
1.167366778286341e-05
5.043243018576504e-05
1.841327497118229
1.192765390101144e-05
5.09399135541151e-05
1.841342720026816
1.224632820911751e-05
5.154772949365095e-05
1.841358424424769
1.261209016173627e-05
5.219756130259153e-05
1.841374647107202
1.300249656591602e-05
5.281769436749069e-05
1.841391390748925
1.339021204426224e-05
5.332429814788296e-05
1.841408617575766
1.374319143846303e-05
5.362341207160109e-05
1.841426243540212
1.402521181639164e-05
5.361381227686464e-05
1.419687155830414e-05
5.31908962696283e-05
1.841444133614281
1.841284060435882
4.911002220506021e-05
1.841298392485086
4.92834138060778e-05
1.84131294516024
4.961574135617973e-05
1.841327815792525
5.007820094249382e-05
1.841343085788779
5.062790007568408e-05
1.841358814831139
5.120835914800217e-05
1.84137503482269
5.175037930627015e-05
1.841391743728295
5.2173428890967e-05
1.841408899596132
5.238770934821141e-05
1.841426415199969
5.229705084275286e-05
5.180274440874781e-05
1.841444153893129
1.841280551640239
7.692131241462752e-05
7.490095825498979e-05
-8.05161719308935e-05
1.841291499802182
7.770134199838085e-05
7.574063711044456e-05
-8.13878567478067e-05
1.841302924288485
7.923854125701512e-05
7.739705949409893e-05
-8.310897477279566e-05
1.841315064370491
8.148564501198052e-05
7.982262306884772e-05
-8.563317507977137e-05
1.841328158516333
8.436798504838498e-05
8.294169431164514e-05
-8.888638439465851e-05
1.841342440445203
8.777924572726833e-05
8.664583354089913e-05
-9.276158107976861e-05
1.841358131834554
9.157634179772584e-05
9.078800824116064e-05
-9.711229879407672e-05
1.841375430715217
9.557401179940363e-05
9.517643675849286e-05
-0.0001017454398370438
1.841394494702442
9.954001882306302e-05
9.956903141525886e-05
-0.0001064143281958929
1.84141541856053
0.0001031922073053693
0.0001036697981458891
-0.0001108133926166491
0.0001061990443151806
0.0001071289643971068
1.841438206314763
-0.0001145763934455976
1.841281331669848
7.190249828206031e-05
6.932251573961868e-05
1.841293037001449
7.258572533430633e-05
7.001356742111169e-05
1.841305171392221
7.392959551515753e-05
7.13735723064439e-05
1.841317946710561
7.588769620745581e-05
7.335704442823499e-05
1.841331569776997
7.838739811721677e-05
7.589263293996636e-05
1.841346237541245
8.132654581746352e-05
7.88796824150232e-05
1.841362129504546
8.456960081999643e-05
8.218420691261693e-05
1.841379396722232
8.794380874157459e-05
8.563485865460459e-05
1.841398146890938
9.123620283937243e-05
8.901971462904612e-05
1.841418425397528
9.419252518718599e-05
9.208498160972976e-05
9.651939650723333e-05
9.453697497008208e-05
1.841440192846214
1.841282014896919
6.561880036233672e-05
6.420035110297172e-05
1.841294380871631
6.62041487256124e-05
6.476242970623293e-05
1.841307129492947
6.735336207181189e-05
6.586570818458627e-05
1.841320446412439
6.902250751750216e-05
6.746751260777728e-05
1.841334508924731
7.114337427083228e-05
6.950163953436357e-05
1.841349480596207
7.36210003988819e-05
7.187601330826965e-05
1.841365503712453
7.633091235187582e-05
7.447007766359074e-05
1.841382689116386
7.911659856098996e-05
7.713241983964262e-05
1.8414011032133
8.178792687374425e-05
7.967930892962508e-05
1.841420752268881
8.412140633580337e-05
8.189500888988732e-05
8.5863348736837e-05
8.353487764622961e-05
1.841441564677957
1.841282600245265
5.823577899377613e-05
5.960402299128485e-05
1.841295530084992
5.872515682405665e-05
6.005655762462208e-05
1.84130879863838
5.968425488369525e-05
6.094218118590748e-05
1.841322567279178
6.107303749523062e-05
6.222139073486247e-05
1.841336986550857
6.282974628881631e-05
6.383349251848389e-05
1.841352190508189
6.48691350071607e-05
6.569513473411083e-05
1.841368289398645
6.708060417808048e-05
6.769880214312303e-05
1.841385360444662
6.932669143111506e-05
6.971168992464527e-05
1.841403436692751
7.144251198099028e-05
7.157550045886511e-05
1.841422494211258
7.323687451332717e-05
7.310782056637584e-05
7.449588104655501e-05
7.41058100857108e-05
1.841442438370571
1.841283089623062
4.992053332514713e-05
5.558761540669378e-05
1.841296489183051
5.031776002989689e-05
5.594927862060441e-05
1.841310187420987
5.109498888370255e-05
5.66546533988802e-05
1.84132432398799
5.221725433066726e-05
5.766746566848724e-05
1.841339025939561
5.363090445613477e-05
5.893245716035494e-05
1.841354401977355
5.526240152640257e-05
6.037459359933219e-05
1.841370535485893
5.701714559336341e-05
6.189839223935665e-05
1.841387476265226
5.877869741290804e-05
6.338770680969238e-05
1.841405231055276
6.040888236213959e-05
6.470639399478501e-05
1.841423753217796
6.174933656666344e-05
6.570035087349879e-05
6.262509548998929e-05
6.620143547537576e-05
1.841442932300708
1.841283486849804
4.083828955167363e-05
5.219185958387916e-05
1.8412972664119
4.11481125111448e-05
5.248026368573956e-05
1.841311309686489
4.175344977852546e-05
5.304054566122072e-05
1.841325737638073
4.262533168251185e-05
5.383946698143188e-05
1.841340657436675
4.371949328700738e-05
5.482677211889862e-05
1.841356156721432
4.497560491331868e-05
5.59349018465655e-05
1.841372297037736
4.631658846625789e-05
5.707892822419594e-05
1.84138910645018
4.764831966987914e-05
5.815698164926035e-05
1.841406571509509
4.886008410910346e-05
5.905149325258245e-05
1.841424628976725
4.982620715064986e-05
5.963160942914476e-05
5.040928415472672e-05
5.97571269452804e-05
1.841443157985786
1.841283796672727
3.115041648982228e-05
4.944639114664938e-05
1.841297871749148
3.137766220582348e-05
4.967798066499772e-05
1.841312181568384
3.182112673052351e-05
5.012588704746934e-05
1.841326831799677
3.245852874520612e-05
5.075951453190667e-05
1.841341913548277
3.325593287193484e-05
5.15328999409542e-05
1.841357497705019
3.416728711158598e-05
5.238478844660212e-05
1.841373628768906
3.513406579713774e-05
5.323899610232274e-05
1.841390318214593
3.608523690921205e-05
5.400527092089857e-05
1.84140753763257
3.693782116933537e-05
5.458089972876233e-05
1.8414252120537
3.759833646199695e-05
5.485331476253746e-05
3.79654169741845e-05
5.470393226631926e-05
1.841443214084862
1.841284023918462
2.101367918946665e-05
4.737192327450095e-05
1.841298315213677
2.116256712464648e-05
4.756202844191648e-05
1.841312818970408
2.145285614819582e-05
4.792796948547332e-05
1.841327629203789
2.186943935591384e-05
4.844125151239841e-05
1.841342824902497
2.238936042871117e-05
4.905928900709213e-05
1.84135846448369
2.298156194743393e-05
4.972572879578019e-05
1.841374579940023
2.360672228253142e-05
5.037109666261586e-05
1.841391170798843
2.421732538457975e-05
5.091393842602281e-05
1.841408198147867
2.475813616291893e-05
5.126264328936265e-05
1.841425579134224
2.51672663514426e-05
5.131813401249012e-05
2.53780085728296e-05
5.097757388940899e-05
1.841443182510496
1.841284172806425
1.058050347232723e-05
4.598216582962777e-05
1.841298605502686
1.065413081406752e-05
4.614517934902097e-05
1.841313235553656
1.079760234290461e-05
4.64576350321715e-05
1.841328149124877
1.1003291258117e-05
4.689249241351916e-05
1.841343417104056
1.125962342520737e-05
4.740948928119136e-05
1.841359089644016
1.155096896845355e-05
4.795561622472636e-05
1.841375190543147
1.185758334593995e-05
4.846593611773646e-05
1.84139171160966
1.215566989236866e-05
4.886488889610506e-05
1.841408607277984
1.241764808203023e-05
4.906823352968104e-05
1.841425789876482
1.261271645102186e-05
4.898576523970637e-05
1.270779538732291e-05
4.852490902582531e-05
1.841443126078346
1.841284246433744
4.528536298207313e-05
1.841298748974197
4.54350055508974e-05
1.841313441242548
4.572107673541616e-05
1.841328405457034
4.611727903838179e-05
1.841343708449585
4.658453231090033e-05
1.841359396258369
4.707152064042928e-05
1.841375488629723
4.751559267392984e-05
1.841391973587818
4.784414193892415e-05
1.841408802346379
4.797660005095849e-05
1.841425884955392
4.782715931384018e-05
4.73083018897689e-05
1.841443087194179
1.841281452367198
7.093729435325732e-05
6.648833576150519e-05
-7.413576855533563e-05
1.841293276653261
7.155789094832307e-05
6.718599050716765e-05
-7.48275291088807e-05
1.841305526200443
7.277712196711368e-05
6.855949187939113e-05
-7.618910050190989e-05
1.841318410210945
7.454999241438668e-05
7.056389922392259e-05
-7.817527789200063e-05
1.841332131961622
7.680642814513658e-05
7.312859744973084e-05
-8.071508080795911e-05
1.8413468837729
7.944846371323758e-05
7.615377004759232e-05
-8.370821022406561e-05
1.841362839319743
8.23470090125511e-05
7.950627956634301e-05
-8.702082610547616e-05
1.84138014266945
8.533872202540839e-05
8.301555144624479e-05
-9.048118525551074e-05
1.841398893611675
8.822372365593234e-05
8.647030552076579e-05
-9.387593892504865e-05
1.841419129222317
9.076512733010484e-05
8.961725145170453e-05
-9.694819026371329e-05
9.269156587766719e-05
9.216311666896025e-05
1.841440802230032
-9.939872487420551e-05
1.841282072963779
6.640793135055942e-05
6.162018608948631e-05
1.841294495884284
6.695280847398691e-05
6.219573104241705e-05
1.841307299070877
6.802128719375316e-05
6.332622236489753e-05
1.841320666646695
6.956997138974869e-05
6.49694912243866e-05
1.84133477399719
7.153175339660222e-05
6.705995904591538e-05
1.84134978231819
7.381368140823015e-05
6.950614544569623e-05
1.841365831032775
7.629462288114666e-05
7.218788030374206e-05
1.841383027671071
7.882320791503293e-05
7.495373602748367e-05
1.841401435015349
8.121671153120532e-05
7.76193840865104e-05
1.841421055660859
8.326169986141372e-05
7.996776507452144e-05
8.471740179061248e-05
8.175211253321419e-05
1.841441814688707
1.841282617840903
6.068830043250675e-05
5.714341243401084e-05
1.841295564362994
6.115614053899964e-05
5.761257754023776e-05
1.841308847755101
6.20718745493552e-05
5.853173052152026e-05
1.841322628428713
6.339497117835435e-05
5.986184120402025e-05
1.841337055925194
6.506312985511423e-05
6.154276844938537e-05
1.841352263259637
6.699074670965149e-05
6.349161563434841e-05
1.841368359617775
6.906733746838636e-05
6.56010068286419e-05
1.841385421174721
7.115635130141495e-05
6.773772136151961e-05
1.841403480003699
7.30949384335061e-05
6.97422547827122e-05
1.841422511362808
7.46953535561765e-05
7.142999754722042e-05
7.574874948090837e-05
7.259480008998651e-05
1.841442420094019
1.841283085680999
5.392736218823317e-05
5.312055165371349e-05
1.841296480097
5.431926188272828e-05
5.349902242322685e-05
1.841310170851713
5.508500632835825e-05
5.423829680258495e-05
1.841324296587359
5.618802348770307e-05
5.530260478789931e-05
1.841338983542073
5.757238567127827e-05
5.663728415565144e-05
1.841354339850383
5.916176882216821e-05
5.816780639615107e-05
1.841370448631579
6.08584808077236e-05
5.979887967318587e-05
1.841387359761853
6.254292893004259e-05
6.14139840398777e-05
1.841405080418802
6.407399344254845e-05
6.287579040988831e-05
1.841423564758706
6.529085153281817e-05