/*--------------------------------*- C++ -*----------------------------------*\
  =========                 |
  \\      /  F ield         | OpenFOAM: The Open Source CFD Toolbox
   \\    /   O peration     | Website:  https://openfoam.org
    \\  /    A nd           | Version:  7
     \\/     M anipulation  |
\*---------------------------------------------------------------------------*/
FoamFile
{
    version     2.0;
    format      ascii;
    class       volVectorField;
    location    "0";
    object      U;
}
// * * * * * * * * * * * * * * * * * * * * * * * * * * * * * * * * * * * * * //

dimensions      [0 1 -1 0 0 0 0];

internalField   nonuniform List<vector> 
12671
(
(1.00007590829226 9.246531804422989e-05 8.55542223811893e-05)
(1.000067244533792 7.916546119253392e-05 7.049022631928552e-05)
(1.000080130299787 8.323581815463651e-05 7.375315444633147e-05)
(1.000059869142341 6.687675738567267e-05 5.889172891948546e-05)
(1.000070995906581 7.039018989786235e-05 6.148275270700932e-05)
(1.0000833666899 7.35458521586271e-05 6.374632901540126e-05)
(1.000063033078226 5.849654643842504e-05 5.20682123144506e-05)
(1.000073913628566 6.124300075990928e-05 5.389797106025722e-05)
(1.000085783450771 6.363270789250075e-05 5.539929780453773e-05)
(1.0000556586226 4.754214183096869e-05 4.496258790358711e-05)
(1.000065502530755 4.979350990863536e-05 4.638982710298677e-05)
(1.000076132068034 5.189113527831268e-05 4.763743859581568e-05)
(1.000087539887932 5.365624810446798e-05 4.856736376532783e-05)
(1.000048493058255 3.745388809931612e-05 3.970254152925774e-05)
(1.000057624337771 3.918435548644708e-05 4.078888662642366e-05)
(1.000067382071678 4.089005777624926e-05 4.178874714466635e-05)
(1.000077776366767 4.244746351395642e-05 4.260052196274463e-05)
(1.000088779311736 4.371394581730852e-05 4.311066817666079e-05)
(1.000041307881993 2.813301165223014e-05 3.590996663755822e-05)
(1.000049949785844 2.935873417180437e-05 3.672528190285937e-05)
(1.000059094792285 3.063150157807694e-05 3.751377842493421e-05)
(1.00006876563878 3.18707618018045e-05 3.81988513680209e-05)
(1.000078955956075 3.29814061120722e-05 3.869381590138061e-05)
(1.000089623767437 3.385513153247663e-05 3.890405272668569e-05)
(1.000033988517997 1.947252383471807e-05 3.32854527300696e-05)
(1.000042286854362 2.024150210171224e-05 3.389523994679077e-05)
(1.000050991548181 2.108415889382598e-05 3.451878697009319e-05)
(1.000060136365403 2.1952966293045e-05 3.509697696540015e-05)
(1.000069731976213 2.2790391283087e-05 3.556172523784133e-05)
(1.000079760736494 2.352916523218342e-05 3.58374013365028e-05)
(1.000090171491413 2.40934812175266e-05 3.584311247806234e-05)
(1.000026507467866 1.136426249632569e-05 3.160014253866795e-05)
(1.000034549785721 1.175065898708322e-05 3.205795721155198e-05)
(1.000042919517053 1.220140446995278e-05 3.256038865871194e-05)
(1.000051661250037 1.26935362006302e-05 3.306113582701707e-05)
(1.000060801024674 1.31983973471741e-05 3.350536784947213e-05)
(1.000070341837724 1.368150719952655e-05 3.383070365719082e-05)
(1.000080259046011 1.410281207070049e-05 3.396879595607414e-05)
(1.00009049601831 1.441748793069045e-05 3.384766022598343e-05)
(1.000018903397976 3.699969855462919e-06 3.068883327604124e-05)
(1.000026735395112 3.800467846954782e-06 3.10313444980006e-05)
(1.000034825659965 3.927897095670955e-06 3.144564412189523e-05)
(1.000043229731569 4.076342097295288e-06 3.189559004384168e-05)
(1.000051988541066 4.238111614800939e-06 3.23364593875859e-05)
(1.000061124336398 4.403633120268341e-06 3.271558767892197e-05)
(1.000070636390934 4.561423344189778e-06 3.297344846507081e-05)
(1.000080496717229 4.698186332939798e-06 3.304530569509941e-05)
(1.000090646136105 4.799094560644468e-06 3.286355229683649e-05)
(1.000051117593262 7.719646377188457e-05 8.105001263465201e-05)
(1.000062611391246 8.207771227888773e-05 8.632953564884519e-05)
(1.000075986661071 8.669677914124298e-05 9.134651271855875e-05)
(1.000002291763969 5.058851997611488e-05 5.037722991163581e-05)
(1.000006952697678 5.127470593281363e-05 5.10521950581225e-05)
(1.000011847447911 5.263580622285305e-05 5.239102006227035e-05)
(1.000017136991578 5.464765248871025e-05 5.436990164215801e-05)
(1.000022989106886 5.726993066349595e-05 5.694915165443954e-05)
(1.00002957927578 6.044133369821029e-05 6.006843878974144e-05)
(1.000037089499207 6.407322276246157e-05 6.364055713814464e-05)
(1.000045704084995 6.804206917788384e-05 6.754398176895678e-05)
(1.000055601304736 7.21812347757417e-05 7.161475169752573e-05)
(1.000066939759531 7.627308100641655e-05 7.563864432134421e-05)
(1.000079838477293 8.004297761906836e-05 7.934518251364673e-05)
(1.000002614838325 4.766853529490889e-05 4.643972982879298e-05)
(1.00000791589532 4.827305265579842e-05 4.699132119423431e-05)
(1.000013431940064 4.946965646691656e-05 4.808258170276554e-05)
(1.000019308897969 5.12321076780052e-05 4.968843465209393e-05)
(1.000025695790316 5.351763446573971e-05 5.176821188124218e-05)
(1.000032744284263 5.626294054783556e-05 5.426208276704228e-05)
(1.000040606390612 5.937912405824027e-05 5.708650967339836e-05)
(1.00004942958857 6.274584652870508e-05 6.012903718790242e-05)
(1.000059348605092 6.620534396347993e-05 6.32429479233052e-05)
(1.000070473134086 6.955721853976682e-05 6.624263552290677e-05)
(1.000082871044681 7.255537866698939e-05 6.890093825819916e-05)
(1.000002896281325 4.391685430024391e-05 4.284042959179485e-05)
(1.000008753818845 4.443820329006196e-05 4.328613219461937e-05)
(1.000014806502932 4.546808952736516e-05 4.416543767633386e-05)
(1.000021184969572 4.697976458339377e-05 4.545323242317431e-05)
(1.000028019939754 4.893034100841743e-05 4.710959921232632e-05)
(1.000035440765376 5.125762706607924e-05 4.907725505858474e-05)
(1.000043572405189 5.387621145407151e-05 5.127839349938811e-05)
(1.000052530304903 5.667316158102361e-05 5.361124497937865e-05)
(1.000062412676745 5.950390660864766e-05 5.594683531051606e-05)
(1.000073289794227 6.218914198481683e-05 5.812665117504027e-05)
(1.000085190205987 6.451389115343433e-05 5.996216834593996e-05)
(1.000003136187309 3.9444385496018e-05 3.962398651277418e-05)
(1.000009467130542 3.988394609478761e-05 3.998069093791287e-05)
(1.000015973501357 4.075059087279844e-05 4.068226567222084e-05)
(1.000022771149447 4.201848043827375e-05 4.170439319084481e-05)
(1.000029973652794 4.364669644898137e-05 4.300902561165233e-05)
(1.000037690154708 4.557682377655615e-05 4.454263958746523e-05)
(1.00004602192513 4.773005309774526e-05 4.62341811195976e-05)
(1.000055057283721 5.000415519532035e-05 4.799297886233119e-05)
(1.000064864585487 5.227084247117321e-05 4.97070391687338e-05)
(1.000075483118626 5.437422650069817e-05 5.124228721342654e-05)
(1.000086912036869 5.613127705276345e-05 5.244345835397881e-05)
(1.000003335841924 3.436115365327216e-05 3.68238573518046e-05)
(1.00001006002422 3.472221618673746e-05 3.710745312766361e-05)
(1.000016941037275 3.543281975247488e-05 3.766334035977127e-05)
(1.000024081075147 3.646924795619475e-05 3.846847885036209e-05)
(1.000031578283086 3.77943010917768e-05 3.948727427167486e-05)
(1.000039524122022 3.93555188057817e-05 4.067047986389144e-05)
(1.00004799973661 4.108312427664569e-05 4.195398081070344e-05)
(1.000057071094271 4.288800484794386e-05 4.325770748403496e-05)
(1.000066782748045 4.466016903460522e-05 4.448501693810046e-05)
(1.00007715022881 4.62682547916652e-05 4.552296491167059e-05)
(1.000088151310574 4.756078063533074e-05 4.624398554287118e-05)
(1.000003497249845 2.877373821767396e-05 3.446416758821741e-05)
(1.000010538796644 2.90606117294394e-05 3.468934262768984e-05)
(1.000017720533131 2.962430044169869e-05 3.512903589348681e-05)
(1.000025132630787 3.044419594128367e-05 3.576166817604712e-05)
(1.000032859923643 3.148821022315951e-05 3.655425423283293e-05)
(1.000040978977898 3.27115219943056e-05 3.746178977297626e-05)
(1.000049554411172 3.405518224242858e-05 3.842665700708606e-05)
(1.000058634328478 3.544484423397749e-05 3.937825401556519e-05)
(1.000068244835431 3.67899745573337e-05 4.023310873058062e-05)
(1.000078383730229 3.79839885626573e-05 4.089580317861003e-05)
(1.000089013677135 3.890581993295226e-05 4.126105750596858e-05)
(1.000003622715439 2.278385254619407e-05 3.256160289085994e-05)
(1.000010910586449 2.300109465131111e-05 3.274181708157175e-05)
(1.000018324621493 2.342737929057729e-05 3.30922336186466e-05)
(1.000025944984932 2.404596503972959e-05 3.359268943414762e-05)
(1.000033845609138 2.483092958252064e-05 3.421262954282078e-05)
(1.000042091094044 2.574632714780972e-05 3.491084849076723e-05)
(1.000050733058854 2.674529049341733e-05 3.563533738693011e-05)
(1.000059805886588 2.7769286413842e-05 3.632340110892849e-05)
(1.000069321892374 2.874779490320404e-05 3.690225566521641e-05)
(1.000079266074186 2.959873720787022e-05 3.729033608372989e-05)
(1.000089590770912 3.023001222130528e-05 3.739955838686298e-05)
(1.000003714491954 1.648790887975115e-05 3.112717166420277e-05)
(1.000011182323388 1.66396976966383e-05 3.127476125532557e-05)
(1.000018765403516 1.693722479839877e-05 3.156048408885658e-05)
(1.000026536181077 1.736816773963873e-05 3.196537445537846e-05)
(1.000034560285742 1.791352289368584e-05 3.246088746329091e-05)
(1.000042893338805 1.854707737823888e-05 3.300888351454049e-05)
(1.000051577370443 1.923487084290359e-05 3.356176980457834e-05)
(1.000060636832888 1.993479508473298e-05 3.40629395255892e-05)
(1.000070074286222 2.059651979010866e-05 3.444766580198871e-05)
(1.000079865947547 2.116196585447053e-05 3.464462543716514e-05)
(1.000089957428432 2.15665604596917e-05 3.45782142666021e-05)
(1.000003774504259 9.977386663283929e-06 3.0167720657559e-05)
(1.000011359902369 1.006704048375867e-05 3.029410338441754e-05)
(1.000019053091534 1.024264284289514e-05 3.05378149487722e-05)
(1.000026921283029 1.049666011457199e-05 3.088074955619605e-05)
(1.000035024518781 1.081750382676776e-05 3.129578708325463e-05)
(1.000043412441993 1.118924469712996e-05 3.174692609868737e-05)
(1.000052120776556 1.159133144103006e-05 3.218960839550659e-05)
(1.00006116753553 1.199840302666558e-05 3.257134674643672e-05)
(1.000070549063135 1.238030581233655e-05 3.283278941523784e-05)
(1.000080236114855 1.270244250556523e-05 3.290935311932731e-05)
(1.000090170295649 1.292658496491681e-05 3.273353936505938e-05)
(1.000003804145769 3.339815057003419e-06 2.968712943117329e-05)
(1.000011447579562 3.369456574580951e-06 2.980307553546153e-05)
(1.000019195023146 3.427492260539133e-06 3.002612437214972e-05)
(1.000027111042071 3.51138819087998e-06 3.03386185094292e-05)
(1.000035252870332 3.617251298171768e-06 3.071417343787182e-05)
(1.000043667166418 3.739739742938127e-06 3.111788459979772e-05)
(1.000052386528774 3.871975724183457e-06 3.150673545659901e-05)
(1.000061425807256 4.005491955220284e-06 3.183031423965449e-05)
(1.000070778325696 4.130247448971783e-06 3.203195464402805e-05)
(1.000080412226698 4.234754515283177e-06 3.205041364506833e-05)
(1.000090267253939 4.306359292218388e-06 3.18221783637503e-05)
(1.000080250904334 7.443917584284834e-05 8.248546875797476e-05)
(1.000002621256929 4.650100061026802e-05 4.771017606943094e-05)
(1.000007934985589 4.705929611675232e-05 4.830556766988181e-05)
(1.00001346319326 4.816378354397067e-05 4.948396031077316e-05)
(1.000019351425345 4.978900504098431e-05 5.121922319202145e-05)
(1.000025748260865 5.189367711976259e-05 5.346881422947203e-05)
(1.00003280483682 5.441707574204898e-05 5.616986736805171e-05)
(1.00004067252173 5.727444630556334e-05 5.923421147779862e-05)
(1.000049498021229 6.035175786093364e-05 6.254265491629616e-05)
(1.000059415149858 6.350035206004539e-05 6.593911659962415e-05)
(1.000070532564822 6.653235565403338e-05 6.9225526681695e-05)
(1.000082917025362 6.921811592701777e-05 7.215884282232388e-05)
(1.000002884528129 4.388739748795949e-05 4.405374221816419e-05)
(1.000008718539932 4.438066131469365e-05 4.454171424894703e-05)
(1.000014747678966 4.535456431597258e-05 4.550509183451436e-05)
(1.000021102695106 4.678281280193498e-05 4.691771362890385e-05)
(1.000027914608113 4.862340100034032e-05 4.873781062730801e-05)
(1.000035313315649 5.081567722085322e-05 5.090511407201963e-05)
(1.000043424615305 5.327672136725769e-05 5.333728133089926e-05)
(1.00005236510546 5.589737653135207e-05 5.592597545396139e-05)
(1.000062234447876 5.853847393548567e-05 5.853312804848829e-05)
(1.000073104595211 6.10280397240414e-05 6.098816258686305e-05)
(1.000085005873944 6.31605534819425e-05 6.30872359412838e-05)
(1.000003114520763 4.049424239908569e-05 4.070518153385788e-05)
(1.000009402152422 4.092079918667826e-05 4.110054934662995e-05)
(1.000015865344746 4.176136604284378e-05 4.187898184109376e-05)
(1.000022620262036 4.299000802382629e-05 4.301512129289972e-05)
(1.000029781125291 4.456577420067836e-05 4.44691029426915e-05)
(1.000037458157186 4.64304059348907e-05 4.618451578775087e-05)
(1.000045754221033 4.850559503021223e-05 4.80859732019851e-05)
(1.000054759773792 5.069012943548993e-05 5.007660502736194e-05)
(1.000064545813046 5.285742331488708e-05 5.203592703728552e-05)
(1.000075154644367 5.485411486395237e-05 5.381871581517752e-05)
(1.000086588569568 5.650060511705526e-05 5.525569029993671e-05)
(1.00000331108491 3.642048535849544e-05 3.770767878384536e-05)
(1.000009985663568 3.678102474044617e-05 3.802488447455535e-05)
(1.000016816887803 3.749018218989946e-05 3.864754539466744e-05)
(1.000023907103264 3.85234613511212e-05 3.955163882136559e-05)
(1.000031355006026 3.984254093158157e-05 4.06998777120467e-05)
(1.000039253136477 4.139355321373035e-05 4.204035874764442e-05)
(1.000047684338806 4.310509833044432e-05 4.350503335524285e-05)
(1.000056716933748 4.488630565575832e-05 4.500827343423323e-05)
(1.000066398433301 4.662537741022306e-05 4.644590859243919e-05)
(1.00007674777701 4.818918284304826e-05 4.76952239550259e-05)
(1.000087746313175 4.942458998944715e-05 4.861650551264286e-05)
(1.000003475060144 3.176586782592391e-05 3.509411580894678e-05)
(1.000010471849252 3.206268530124231e-05 3.534686045059133e-05)
(1.00001760778136 3.264549710920612e-05 3.584130615896816e-05)
(1.000024972620775 3.349216755155982e-05 3.655502802457643e-05)
(1.000032651217147 3.456832480314693e-05 3.745359232097119e-05)
(1.000040720714588 3.582611939241113e-05 3.848974046283278e-05)
(1.000049246973484 3.720285293709463e-05 3.960254428192474e-05)
(1.000058280052877 3.861974823106211e-05 4.071676129586599e-05)
(1.000067848690233 3.998122481549872e-05 4.174269003325423e-05)
(1.000077953856947 4.117513395537214e-05 4.257689537534572e-05)
(1.000088561674207 4.207447579549831e-05 4.310421966757832e-05)
(1.000003607902391 2.662849982325547e-05 3.288866582673562e-05)
(1.000010865292857 2.686478679923305e-05 3.308971637365883e-05)
(1.00001824637006 2.732802325399161e-05 3.348152115956165e-05)
(1.000025829930955 2.799918226893076e-05 3.404329162556936e-05)
(1.000033688957861 2.884889259328543e-05 3.474339851816645e-05)
(1.000041887664617 2.983658202302338e-05 3.553895866535182e-05)
(1.000050477967655 3.090957883520631e-05 3.637549341868176e-05)
(1.000059495305627 3.200239530732566e-05 3.718684454296763e-05)
(1.000068953819024 3.30364836056722e-05 3.789558183453474e-05)
(1.000078841027999 3.392081222717593e-05 3.84141736020635e-05)
(1.000089112315025 3.455364626432617e-05 3.864720878528266e-05)
(1.000003711347123 2.110340196320161e-05 3.110843806153362e-05)
(1.000011171372679 2.128262284443282e-05 3.12695812296299e-05)
(1.000018742176826 2.163351450397763e-05 3.158226782895588e-05)
(1.000026493490111 2.214073565480533e-05 3.202720770989493e-05)
(1.000034488616902 2.27807116850442e-05 3.257527602848559e-05)
(1.000042781400833 2.352107302835689e-05 3.31873915428993e-05)
(1.000051412786768 2.432010099481532e-05 3.381453047239959e-05)
(1.00006040695764 2.512635442660273e-05 3.439802615603202e-05)
(1.000069767107148 2.587869591929352e-05 3.487033303177925e-05)
(1.00007947101961 2.650697202087469e-05 3.515645385081691e-05)
(1.000089466763508 2.693361532218288e-05 3.517622315030183e-05)
(1.000003787123273 1.528189727710626e-05 2.976502898911935e-05)
(1.000011395405393 1.540727455884291e-05 2.989714141583393e-05)
(1.000019104482865 1.565248811202987e-05 3.015234414278501e-05)
(1.000026977128139 1.600630223540859e-05 3.051257534907486e-05)
(1.000035069295235 1.645150842998546e-05 3.095073103809285e-05)
(1.000043427053926 1.696458247833631e-05 3.143074231282148e-05)
(1.00005208324905 1.751536815260075e-05 3.190782800177601e-05)
(1.000061053900547 1.806690998682786e-05 3.232904270746573e-05)
(1.000070334436623 1.857558695408847e-05 3.263426037003469e-05)
(1.000079895947403 1.899171858756185e-05 3.275773752125108e-05)
(1.000089681756269 1.926081866176271e-05 3.263038557090953e-05)
(1.000003836724404 9.251707719926159e-06 2.886587098149806e-05)
(1.00001154196352 9.325823506307814e-06 2.897907710739676e-05)
(1.000019341204512 9.470673104692622e-06 2.919687743974102e-05)
(1.000027292510429 9.679408120585214e-06 2.950207663094787e-05)
(1.000035446897142 9.941562320955924e-06 2.986898183059529e-05)
(1.000043845260556 1.024286987838901e-05 3.026360365239026e-05)
(1.000052515114281 1.056510776882893e-05 3.06440532356523e-05)
(1.000061467176444 1.088603544608976e-05 3.096123825718791e-05)
(1.000070691915752 1.11795206360335e-05 3.115996980640439e-05)
(1.000080156251318 1.141594985765926e-05 3.118059076534505e-05)
(1.000089800692807 1.156302217490362e-05 3.096121511041566e-05)
(1.000003861239056 3.097597352136954e-06 2.841530164365856e-05)
(1.000011614370782 3.122112006719013e-06 2.851919258337143e-05)
(1.000019458067483 3.17000461544849e-06 2.871857494741583e-05)
(1.00002744801735 3.23897498174019e-06 2.899670030629729e-05)
(1.000035632756994 3.325511537546407e-06 2.932860003528457e-05)
(1.000044050599377 3.424834830401085e-06 2.968134442355863e-05)
(1.00005272641462 3.530850358573477e-06 3.0014508451212e-05)
(1.000061668313416 3.636135169190338e-06 3.028093593271395e-05)
(1.00007086435103 3.731987328273817e-06 3.042790140579256e-05)
(1.000080279448936 3.808570450140939e-06 3.039876355237506e-05)
(1.000089852814072 3.855184951020855e-06 3.013518079075788e-05)
(1.000002908419551 4.275242031796504e-05 4.413302618912369e-05)
(1.000008789831352 4.320094621124921e-05 4.464644632666978e-05)
(1.000014865162557 4.408574788740571e-05 4.566042298259655e-05)
(1.000021264161709 4.538140373181214e-05 4.714813040256507e-05)
(1.000028116559787 4.704752273668834e-05 4.906663145658598e-05)
(1.00003555058007 4.902617279340782e-05 5.135379178571488e-05)
(1.000043689886308 5.123872567794633e-05 5.392446969354448e-05)
(1.000052648451017 5.358243730115943e-05 5.666634146317399e-05)
(1.000062522850492 5.592725802669952e-05 5.943592673900582e-05)
(1.000073381618831 5.811358963399678e-05 6.205563789629683e-05)
(1.000085251582522 5.995195077124591e-05 6.43129686619622e-05)
(1.000003120237933 4.041336238346587e-05 4.081404831392392e-05)
(1.000009419078848 4.081071224982459e-05 4.123598847311927e-05)
(1.000015892796564 4.159307162347793e-05 4.206729037514731e-05)
(1.000022657071015 4.273500214548187e-05 4.328197216772221e-05)
(1.000029825597915 4.41965049093502e-05 4.483905290935252e-05)
(1.000037508021766 4.592096925768015e-05 4.668030769927612e-05)
(1.000045806568467 4.783273441774386e-05 4.872758468921214e-05)
(1.000054811001238 4.983458057394083e-05 5.088001786433253e-05)
(1.000064591584615 5.180561191695458e-05 5.301162577637673e-05)
(1.000075189888687 5.360016442685804e-05 5.496997110898695e-05)
(1.000086607540335 5.504854211987977e-05 5.657674205727946e-05)
(1.000003305769415 3.73441457505748e-05 3.776923964335098e-05)
(1.000009969540592 3.768862959185867e-05 3.811197811343073e-05)
(1.000016789452448 3.83656307260462e-05 3.878544437889828e-05)
(1.000023867594997 3.935061567068832e-05 3.976502460640704e-05)
(1.000031302526908 4.060533905165269e-05 4.101237155356277e-05)
(1.000039186809571 4.207627332599064e-05 4.247385491846629e-05)
(1.000047603497616 4.369281176849846e-05 4.40787884579589e-05)
(1.000056621328519 4.536554163419957e-05 4.573772767524353e-05)
(1.000066288434349 4.698500074106179e-05 4.734124792910938e-05)
(1.000076624549036 4.842145554288097e-05 4.875973675351017e-05)
(1.000087611929525 4.952634892403634e-05 4.984484493553096e-05)
(1.000003464721775 3.3632924568529e-05 3.50392496031305e-05)
(1.000010440563818 3.392476831536826e-05 3.531486400252548e-05)
(1.00001755478264 3.449728391664048e-05 3.585482061794535e-05)
(1.000024896779345 3.53276695508717e-05 3.66361735041997e-05)
(1.000032551255578 3.638063187611139e-05 3.76235512504762e-05)
(1.000040595494485 3.760723504360816e-05 3.876816356469387e-05)
(1.000049095836774 3.894364457694355e-05 4.000673937731835e-05)
(1.000058103190214 4.031003133406347e-05 4.126064533238656e-05)
(1.000067647498526 4.160998986141483e-05 4.243551529841272e-05)
(1.000077731236869 4.273091247196214e-05 4.342180108602857e-05)
(1.000088322209723 4.354582532911087e-05 4.40967123329183e-05)
(1.000003597613161 2.937003308660424e-05 3.265546972031096e-05)
(1.000010833899937 2.961079207871846e-05 3.287551455337793e-05)
(1.000018192353683 3.008229464173472e-05 3.33051403323309e-05)
(1.000025750942957 3.076417407740903e-05 3.392316932160363e-05)
(1.000033582092398 3.162509050001982e-05 3.469725613367839e-05)
(1.000041749822273 3.262192586902817e-05 3.558332515569573e-05)
(1.000050306293906 3.369895791207316e-05 3.652504658524523e-05)
(1.0000592876738 3.478723921195482e-05 3.74535553711035e-05)
(1.000068709315486 3.580447346386704e-05 3.828767245193397e-05)
(1.000078560384503 3.665573835361801e-05 3.893493503803743e-05)
(1.000088798222696 3.723543759597413e-05 3.929376568851832e-05)
(1.000003705480763 2.464571483292985e-05 3.064135889062185e-05)
(1.000011152825372 2.483771539029849e-05 3.08166861523268e-05)
(1.000018708164645 2.521315360024469e-05 3.115766945920452e-05)
(1.000026439575202 2.575466775757583e-05 3.164483271422828e-05)
(1.000034409007365 2.64356683486665e-05 3.224866767625979e-05)
(1.000042669361899 2.721980346885855e-05 3.292939397159246e-05)
(1.000051261150117 2.80604536494977e-05 3.36368287881816e-05)
(1.000060208705762 2.890043998368794e-05 3.431053008835343e-05)
(1.00006951599767 2.967217623803712e-05 3.488041283477134e-05)
(1.000079162201001 3.029853127006208e-05 3.526806232985021e-05)
(1.000089097321712 3.069468068138283e-05 3.538897038477457e-05)
(1.000003789613717 1.9548657244027e-05 2.901383730826048e-05)
(1.000011401338703 1.969449916883178e-05 2.915453960521541e-05)
(1.000019109306059 1.997930310375046e-05 2.942698168739731e-05)
(1.000026973457711 2.038915175407868e-05 2.981319060295813e-05)
(1.000035047228113 2.090280968971263e-05 3.028612105362116e-05)
(1.000043374607577 2.149138877862809e-05 3.080964764641113e-05)
(1.00005198693042 2.211806560138472e-05 3.133871193550252e-05)
(1.000060899396386 2.273799165725315e-05 3.181975393231324e-05)
(1.000070107406775 2.329856910378438e-05 3.219158042333529e-05)
(1.00007958288895 2.374028555198465e-05 3.23868314139984e-05)
(1.000089270891083 2.399830246173033e-05 3.233419510468717e-05)
(1.000003851322688 1.416525011980697e-05 2.778461897756676e-05)
(1.00001158347123 1.42673898632898e-05 2.790007169166803e-05)
(1.000019402817233 1.446664190041253e-05 2.812258777580152e-05)
(1.000027363081791 1.475285340676971e-05 2.843540015851096e-05)
(1.000035511244384 1.51105753359512e-05 2.881341629961259e-05)
(1.000043884617804 1.551886849647385e-05 2.922336891946376e-05)
(1.000052507752994 1.595116227825653e-05 2.962414801865877e-05)
(1.000061389209266 1.637526476081421e-05 2.996741875320886e-05)
(1.000070518291564 1.675364358991096e-05 3.01986418577342e-05)
(1.000079861934364 1.704410765654901e-05 3.025861388050723e-05)
(1.000089361998357 1.720101642009442e-05 3.008562591784043e-05)
(1.000003891753466 8.579454774538893e-06 2.696138185109821e-05)
(1.000011702730487 8.639879183631968e-06 2.706036090533804e-05)
(1.000019594769606 8.757667605498752e-06 2.725033084254461e-05)
(1.000027617391145 8.926646675361848e-06 2.751536418039551e-05)
(1.000035813243193 9.137439581020912e-06 2.783171777842555e-05)
(1.000044215194516 9.377368311054241e-06 2.816808117955811e-05)
(1.000052843326686 9.630393332770432e-06 2.848602107396998e-05)
(1.0000617018777 9.877149583513313e-06 2.87407088561218e-05)
(1.000070776249664 1.009514830989415e-05 2.8882025327359e-05)
(1.000080030261777 1.025921946591205e-05 2.885613117653562e-05)
(1.00008940390152 1.034226573055866e-05 2.86075702433433e-05)
(1.000003911747097 2.873153960157838e-06 2.654870208388144e-05)
(1.000011761684058 2.893147591751075e-06 2.663955544414918e-05)
(1.000019689584724 2.932107532771524e-06 2.681348008826153e-05)
(1.000027742853768 2.987962712333501e-06 2.705497874661991e-05)
(1.000035961966024 3.057570154258871e-06 2.734099660672829e-05)
(1.000044377571561 3.136685538847316e-06 2.764121619049654e-05)
(1.000053007534267 3.219947197702216e-06 2.791855461943122e-05)
(1.000061853964247 3.30089312132127e-06 2.81299417959069e-05)
(1.000070900361446 3.372033744414813e-06 2.82274620205151e-05)
(1.000080109051782 3.425004900336373e-06 2.815993410854046e-05)
(1.00008941916131 3.45082374741957e-06 2.787498177145785e-05)
(1.000003153013504 3.939484035879875e-05 3.976573894213936e-05)
(1.000009516932275 3.975121320518865e-05 4.019811401745349e-05)
(1.000016054223201 4.045203454977771e-05 4.105028007246181e-05)
(1.000022879284124 4.147281047113077e-05 4.229620939617397e-05)
(1.000030104124444 4.277523734502133e-05 4.389476955655469e-05)
(1.000037836169285 4.430547610895419e-05 4.578738851126184e-05)
(1.000046174805323 4.599212763980904e-05 4.78952684438617e-05)
(1.000055206316024 4.774419896323529e-05 5.011649668391476e-05)
(1.000064996921165 4.944947733880069e-05 5.232356351192472e-05)
(1.000075583786813 5.097387503625217e-05 5.436198270065574e-05)
(1.000086964144385 5.21624496421615e-05 5.60508978004975e-05)
(1.000003321537579 3.729633283798782e-05 3.682763489010197e-05)
(1.000010016540636 3.761281924167738e-05 3.718386519220144e-05)
(1.00001686673351 3.823405076151259e-05 3.788431724998251e-05)
(1.000023973449165 3.913602465570738e-05 3.890433815229985e-05)
(1.000031434312773 4.028148895314431e-05 4.020541649736144e-05)
(1.000039340723563 4.161859975481069e-05 4.173351408582732e-05)
(1.000047774315121 4.307940866078847e-05 4.341714952960093e-05)
(1.00005680214802 4.457845510913943e-05 4.516554225433699e-05)
(1.000066470470879 4.60118423137485e-05 4.68672465124183e-05)
(1.000076797037072 4.725728497011049e-05 4.838983500627836e-05)
(1.000087762206996 4.81757110478516e-05 4.958130586296683e-05)
(1.0000034694999 3.45132008701275e-05 3.412793349610871e-05)
(1.000010454650194 3.478820598197484e-05 3.441797078540506e-05)
(1.000017577428612 3.532702236989574e-05 3.498677963742457e-05)
(1.000024926722318 3.610685940626768e-05 3.581138075823577e-05)
(1.000032586699547 3.709257605342412e-05 3.685623974542916e-05)
(1.000040634088981 3.823568522566301e-05 3.807214564011132e-05)
(1.000049134660673 3.947329095698514e-05 3.939499251344042e-05)
(1.000058138749678 4.072720788667607e-05 4.074472721415898e-05)
(1.000067675751023 4.190359460248596e-05 4.202481479409454e-05)
(1.000077747655547 4.289351019529377e-05 4.312265805910391e-05)
(1.000088321904215 4.357486004355932e-05 4.391147186530885e-05)
(1.000003596542687 3.112408079987182e-05 3.170378661957206e-05)
(1.000010830362132 3.135754462114308e-05 3.193750688712509e-05)
(1.000018185386934 3.181415299896383e-05 3.239450943492987e-05)
(1.000025739002848 3.24729683791448e-05 3.305362374077699e-05)
(1.000033563138593 3.330188567973706e-05 3.388240593693583e-05)
(1.000041721438469 3.425693309900119e-05 3.483645219621718e-05)
(1.000050265837777 3.528157996290905e-05 3.585872300750622e-05)
(1.000059232451664 3.63062700628528e-05 3.687909580518715e-05)
(1.000068636773192 3.72484599491006e-05 3.781442555683685e-05)
(1.000078468302511 3.801349534744225e-05 3.856944515696493e-05)
(1.000088684900248 3.849668648426871e-05 3.90388663789274e-05)
(1.000003702963725 2.721090959949315e-05 2.958423512791941e-05)
(1.00001114472239 2.740385824524351e-05 2.977116386215774e-05)
(1.000018692852365 2.778059054687403e-05 3.01354219871083e-05)
(1.000026414454999 2.83225645932056e-05 3.065763706500147e-05)
(1.000034370664264 2.900148109989688e-05 3.130835827249395e-05)
(1.00004261378327 2.977882231749904e-05 3.204770484588352e-05)
(1.00005118399764 3.060544553946324e-05 3.282509907158879e-05)
(1.000060105629665 3.142141459289163e-05 3.357925895213392e-05)
(1.000069382976314 3.215629725827869e-05 3.42386678049422e-05)
(1.000078995882081 3.273019024276941e-05 3.47227666092727e-05)
(1.000088895335365 3.305574306510227e-05 3.494412168025831e-05)
(1.000003789491329 2.285680911023305e-05 2.779128181096256e-05)
(1.000011400043071 2.301091989252938e-05 2.794043377720385e-05)
(1.00001910409328 2.331135894492436e-05 2.822992496165333e-05)
(1.000026959893405 2.374241860107801e-05 2.864204848367506e-05)
(1.000035019396315 2.428021696769935e-05 2.915007608894608e-05)
(1.000043325402908 2.489241603440459e-05 2.971815660757226e-05)
(1.000051908430057 2.553801794477339e-05 3.030134656061427e-05)
(1.000060783303383 2.616738667261953e-05 3.084591193269752e-05)
(1.000069945548844 2.672267400133537e-05 3.12900663931954e-05)
(1.000079367748318 2.713884775959568e-05 3.156532455545882e-05)
(1.000088996132275 2.734551958947558e-05 3.159864128476543e-05)
(1.000003857074501 1.814463561303875e-05 2.63410430631898e-05)
(1.00001159927222 1.826184358758293e-05 2.646086157658418e-05)
(1.000019424351078 1.849003705643961e-05 2.669237019543447e-05)
(1.000027383313023 1.88166805100123e-05 2.70192983933731e-05)
(1.000035520661695 1.922277275650865e-05 2.741723593371766e-05)
(1.00004387158425 1.968268993096833e-05 2.785371057401072e-05)
(1.000052458968284 2.016411020013501e-05 2.828842746849256e-05)
(1.00006129028572 2.062813196680064e-05 2.867377939499867e-05)
(1.000070354437399 2.102971883639834e-05 2.895575293337943e-05)
(1.000079618727669 2.131861469894117e-05 2.90753581424039e-05)
(1.000089026222782 2.144086569475045e-05 2.897069447267293e-05)
(1.000003906699301 1.315613983768236e-05 2.524486458409122e-05)