/*--------------------------------*- C++ -*----------------------------------*\
  =========                 |
  \\      /  F ield         | OpenFOAM: The Open Source CFD Toolbox
   \\    /   O peration     | Website:  https://openfoam.org
    \\  /    A nd           | Version:  7
     \\/     M anipulation  |
\*---------------------------------------------------------------------------*/
FoamFile
{
    version     2.0;
    format      ascii;
    class       volVectorField;
    location    "0";
    object      grad(Phi);
}
// * * * * * * * * * * * * * * * * * * * * * * * * * * * * * * * * * * * * * //

dimensions      [0 1 -1 0 0 0 0];

internalField   nonuniform List<vector> 
12684
(
(-1.000224411116573 -9.714425916518194e-06 -8.565599439219162e-06)
(-1.000210787679955 -8.198654375818172e-06 -7.338807690939417e-06)
(-1.00019966984245 -6.78009687835069e-06 -6.395782422398913e-06)
(-1.000190796842355 -5.442721861287355e-06 -5.681230688386687e-06)
(-1.000183952335571 -4.169801744849294e-06 -5.153419931980987e-06)
(-1.000178965449308 -2.945258084127727e-06 -4.781817455168351e-06)
(-1.000175709944029 -1.754137455289847e-06 -4.545170001104634e-06)
(-1.000174102769654 -3.88379555266174e-07 -4.430081032111736e-06)
(-1.000259943456042 -1.225299928990512e-05 -1.295493418605988e-05)
(-1.000241589860565 -1.094191353331872e-05 -1.089451556171093e-05)
(-1.000225733674922 -9.642899298514959e-06 -9.235501520572334e-06)
(-1.000212218733811 -8.378072561501893e-06 -7.912026910627677e-06)
(-1.000200866932017 -7.155971815816966e-06 -6.866012460616892e-06)
(-1.000191500736815 -5.976903304741418e-06 -6.048806171862767e-06)
(-1.000183956954195 -4.836617242209759e-06 -5.42115571774679e-06)
(-1.000178094577584 -3.728656236850978e-06 -4.9524341918899e-06)
(-1.00017379887423 -2.645738502074577e-06 -4.619638162965765e-06)
(-1.000170983242349 -1.580478434542974e-06 -4.406431853232154e-06)
(-1.000169589872369 -3.504491194739013e-07 -4.302371780834162e-06)
(-1.00023998712445 -1.016566721205593e-05 -1.124653948572742e-05)
(-1.000225328644484 -9.227277588050156e-06 -9.616739422980307e-06)
(-1.0002124712392 -8.250988242683574e-06 -8.275083187480128e-06)
(-1.00020136251652 -7.260312247278632e-06 -7.183450705370128e-06)
(-1.000191919798773 -6.268890039240245e-06 -6.305629336626398e-06)
(-1.000184048248899 -5.283638108949491e-06 -5.609560252088412e-06)
(-1.000177653273266 -4.307193739172593e-06 -5.068242331358867e-06)
(-1.000172648623977 -3.339658563111814e-06 -4.659880401461333e-06)
(-1.000168961457392 -2.37975566194649e-06 -4.367663528951493e-06)
(-1.000166535343731 -1.425540130939261e-06 -4.179410832129558e-06)
(-1.000165331958965 -3.165285528961302e-07 -4.087224041284941e-06)
(-1.000223231764824 -8.541653158902649e-06 -9.645915804113289e-06)
(-1.0002114695502 -7.864333795848337e-06 -8.366805861160482e-06)
(-1.000201010195235 -7.122707412418684e-06 -7.293343905249325e-06)
(-1.000191860677849 -6.33828107311768e-06 -6.404590328636509e-06)
(-1.000183997365655 -5.525870989203754e-06 -5.678824643276513e-06)
(-1.000177379560766 -4.695323906428604e-06 -5.095610445415623e-06)
(-1.000171959566269 -3.853020254060292e-06 -4.636933230074007e-06)
(-1.000167689858973 -3.003056762929062e-06 -4.287731982431886e-06)
(-1.000164528011243 -2.148109305266674e-06 -4.036071042499825e-06)
(-1.000162439942184 -1.290023250888332e-06 -3.873124819933155e-06)
(-1.000161401963989 -2.867963353192811e-07 -3.793089061320547e-06)
(-1.000209345708134 -7.285678402704943e-06 -8.150000779405137e-06)
(-1.000199833587808 -6.790685264226777e-06 -7.154956197169034e-06)
(-1.000191270048793 -6.218693583998028e-06 -6.305935675770162e-06)
(-1.000183694147826 -5.588131583092503e-06 -5.592318798139876e-06)
(-1.000177117433546 -4.913160874475766e-06 -5.001689605649112e-06)
(-1.000171533592403 -4.204536288132609e-06 -4.521488090017233e-06)
(-1.000166926123926 -3.470462473939439e-06 -4.140069323469473e-06)
(-1.000163274185035 -2.717337011695696e-06 -3.847327314887194e-06)
(-1.000160556872538 -1.950341100787088e-06 -3.635025504772541e-06)
(-1.000158756239311 -1.173880221860721e-06 -3.496946528686149e-06)
(-1.000157859310719 -2.612657671874257e-07 -3.428942792584142e-06)
(-1.000198021327877 -6.322567413910627e-06 -6.746890257107496e-06)
(-1.000190238609196 -5.954409224226395e-06 -5.982430295624888e-06)
(-1.000183154106653 -5.50426153485277e-06 -5.320956958112537e-06)
(-1.000176822765985 -4.987454786206601e-06 -4.757807358998552e-06)
(-1.000171276149443 -4.416796327219578e-06 -4.286339507893788e-06)
(-1.000166529071443 -3.802931471313977e-06 -3.899162022355902e-06)
(-1.000162585211854 -3.154782308389895e-06 -3.58900340689862e-06)
(-1.000159441638562 -2.479975664992947e-06 -3.349288581018448e-06)
(-1.000157092299926 -1.785214919558455e-06 -3.174497647676367e-06)
(-1.000155530605785 -1.076580441836066e-06 -3.060374378783868e-06)
(-1.00015475122712 -2.398413746774177e-07 -3.004038174846419e-06)
(-1.000188989854988 -5.594387558496832e-06 -5.421126421600804e-06)
(-1.000182515512186 -5.313825775982013e-06 -4.845586953189577e-06)
(-1.000176564074262 -4.95033411392075e-06 -4.341802379844122e-06)
(-1.000171197210403 -4.516563509651654e-06 -3.908336116288829e-06)
(-1.00016645718853 -4.023849632953018e-06 -3.541973678912961e-06)
(-1.000162371320473 -3.482295326387604e-06 -3.238595082760079e-06)
(-1.000158955952615 -2.900950695411366e-06 -2.99383635740386e-06)
(-1.000156219852908 -2.288027475358365e-06 -2.803563202953132e-06)
(-1.000154166949988 -1.651108534186985e-06 -2.664192640391152e-06)
(-1.000152798440719 -9.973329107154302e-07 -2.572900408829446e-06)
(-1.000152114309752 -2.223669597068079e-07 -2.527746875652549e-06)
(-1.000182027646823 -5.057527852972507e-06 -4.156562404778257e-06)
(-1.000176517445643 -4.836537895264119e-06 -3.73847274315724e-06)
(-1.000171409507074 -4.533537453776995e-06 -3.36914310590474e-06)
(-1.000166767413442 -4.159060774527899e-06 -3.048679895608908e-06)
(-1.000162638681085 -3.723135971064802e-06 -2.775770079742269e-06)
(-1.000159057683592 -3.235217816893826e-06 -2.54827237976504e-06)
(-1.000156048446496 -2.704213575732699e-06 -2.363689936216808e-06)
(-1.000153627144507 -2.138558958086926e-06 -2.219527401594291e-06)
(-1.000151804210638 -1.546314168501785e-06 -2.11354754175801e-06)
(-1.000150586019 -9.352616140710899e-07 -2.043946737293331e-06)
(-1.000149976134104 -2.086639351028946e-07 -2.009468152662366e-06)
(-1.000176957795228 -4.680139144605595e-06 -2.937749147814569e-06)
(-1.00017212460792 -4.498284359291596e-06 -2.65430948985179e-06)
(-1.000167613659084 -4.235905807531408e-06 -2.402212956140337e-06)
(-1.000163488277804 -3.901998589697663e-06 -2.182094840290765e-06)
(-1.000159798238635 -3.50557042011472e-06 -1.993578042733366e-06)
(-1.000156581681654 -3.055498034879084e-06 -1.835648238263698e-06)
(-1.000153867082334 -2.560464825163091e-06 -1.706965883066867e-06)
(-1.000151675107527 -2.02895142395461e-06 -1.606111075371843e-06)
(-1.000150020250192 -1.469257131875279e-06 -1.531766297067008e-06)
(-1.000148912178019 -8.895364005806529e-07 -1.482846144718495e-06)
(-1.000148356760912 -1.985603179378091e-07 -1.458583885252575e-06)
(-1.00017364950173 -4.440082593676363e-06 -1.750424293316552e-06)
(-1.000169246450422 -4.281875411030109e-06 -1.586256951779492e-06)
(-1.000165116932896 -4.044457995303075e-06 -1.439581279826603e-06)
(-1.000161323414027 -3.735831757070673e-06 -1.310976783090777e-06)
(-1.000157916460539 -3.364316276108204e-06 -1.200421253572262e-06)
(-1.000154936057862 -2.9383695086678e-06 -1.10749717831018e-06)
(-1.000152413067698 -2.46647865702328e-06 -1.031568014227649e-06)
(-1.000150370673339 -1.957102244015655e-06 -9.71920069839289e-07)
(-1.000148825701546 -1.418646918896527e-06 -9.278709329208368e-07)
(-1.000147789744592 -8.594655446918538e-07 -8.988481666501306e-07)
(-1.0001472700336 -1.919114226145206e-07 -8.844429009800563e-07)
(-1.000172016686774 -4.323418087828826e-06 -3.87643352134158e-07)
(-1.000167822490001 -4.176339809605571e-06 -3.518047693277613e-07)
(-1.000163878803242 -3.950794204246665e-06 -3.197123902976737e-07)
(-1.000160247470923 -3.65429713393424e-06 -2.915154325558192e-07)
(-1.000156979258155 -3.294823686591962e-06 -2.672303340259478e-07)
(-1.000154114885554 -2.880614322700736e-06 -2.467845703384662e-07)
(-1.000151686242356 -2.420045677103964e-06 -2.300545821390985e-07)
(-1.000149717632188 -1.921550875458267e-06 -2.168966752179869e-07)
(-1.000148226940311 -1.393575517857933e-06 -2.071709426079064e-07)
(-1.000147226641984 -8.445573674991417e-07 -2.00758761905789e-07)
(-1.000146724597254 -1.886138249751426e-07 -1.975748745298368e-07)
(-1.000280894081624 -1.353731537406094e-05 -1.548555335832552e-05)
(-1.000256443623861 -1.103177104567834e-05 -1.32001081011896e-05)
(-1.000236241944331 -9.12647968459294e-06 -1.114748471156831e-05)
(-1.000219728382654 -7.681392028497743e-06 -9.297521744057877e-06)
(-1.000206416570697 -6.591410131443355e-06 -7.61540076589478e-06)
(-1.000195901439157 -5.778569795146608e-06 -6.067004460302236e-06)
(-1.000187857681992 -5.185927650691751e-06 -4.621195349672918e-06)
(-1.000182034696512 -4.772887000785581e-06 -3.250463533310134e-06)
(-1.00017825074387 -4.511747864844896e-06 -1.930677282460506e-06)
(-1.0001763877922 -4.385298461510974e-06 -4.268991638962915e-07)
(-1.000260402375658 -1.307954713444794e-05 -1.217470049523736e-05)
(-1.000240840286011 -1.133999434559125e-05 -1.014760138878033e-05)
(-1.00030414055143 -1.470219072954688e-05 -1.850936251817053e-05)
(-1.000274379807146 -1.175926754883408e-05 -1.547429274123174e-05)
(-1.000250199958712 -9.572125340479014e-06 -1.285766842221429e-05)
(-1.000230712971204 -7.945338414197631e-06 -1.058046058742013e-05)
(-1.000215189398338 -6.738555508964807e-06 -8.571370876610433e-06)
(-1.00020304594282 -5.851051916221516e-06 -6.768851959351568e-06)
(-1.000193828451319 -5.211229895545634e-06 -5.12097924006098e-06)
(-1.000187195204027 -4.769170212112162e-06 -3.584296228050737e-06)
(-1.000356523276592 -1.628134036898346e-05 -2.607478565288225e-05)
(-1.000329385147004 -1.565180609666493e-05 -2.203258286401314e-05)
(-1.000313695732196 -1.254942022299587e-05 -2.094735439730759e-05)
(-1.000293506103699 -1.228601032606719e-05 -1.805608999289255e-05)
(-1.000280068199358 -9.883473965227177e-06 -1.684424491839645e-05)
(-1.000264849221419 -9.837931077390218e-06 -1.475813669683372e-05)
(-1.000253727138968 -7.972720323080317e-06 -1.348986507914687e-05)
(-1.000242081324243 -8.051185476642908e-06 -1.198037697238957e-05)
(-1.000233231676523 -6.60105484636594e-06 -1.068901592668387e-05)
(-1.000224157455308 -6.747354877387418e-06 -9.598489382294798e-06)
(-1.000217503395296 -5.619887773093843e-06 -8.293719891700146e-06)
(-1.000210271073384 -5.801672419788356e-06 -7.513353072507251e-06)
(-1.000205745016062 -4.928273372344201e-06 -6.190281980563141e-06)
(-1.000199811165554 -5.127531799068434e-06 -5.645783122113627e-06)
(-1.000197380335512 -4.45863488484334e-06 -4.290431365976142e-06)
(-1.000192327590819 -4.665783061745765e-06 -3.932201414606809e-06)
(-1.000192010967219 -4.167138580740248e-06 -2.524073294810783e-06)
(-1.000187504566292 -4.377424875997491e-06 -2.320672905807791e-06)
(-1.000182902662173 -4.491404536391724e-06 -2.122138417877648e-06)
(-1.000189386631927 -4.02753463110051e-06 -5.554785430134216e-07)
(-1.000185141673539 -4.238819273062216e-06 -5.115129910442523e-07)
(-1.000180794549427 -4.357399366618105e-06 -4.684915784126597e-07)
(-1.000411096851116 -2.156361120694193e-05 -3.269732318602683e-05)
(-1.00037415931915 -2.032254039590748e-05 -2.689339975184945e-05)
(-1.000283427172382 -1.49206706442639e-05 -1.475609832790017e-05)
(-1.000310203765666 -1.682767681658159e-05 -1.801760661098587e-05)
(-1.000340526000413 -1.867696600297817e-05 -2.204058165920257e-05)
(-1.000450353421538 -2.167279816522012e-05 -3.966550361240376e-05)
(-1.000487934202558 -9.222584597209421e-06 -5.028496558057546e-05)
(-1.000466990117239 -1.314842667269417e-05 -4.586988956338389e-05)
(-1.000441169910511 -1.533081284472876e-05 -4.030070757143334e-05)
(-1.000413379682211 -1.619841877319707e-05 -3.474073627895586e-05)
(-1.000384853556934 -1.643561071983637e-05 -3.051835575579685e-05)
(-1.000406432199342 -6.924106796343135e-06 -3.66532120424865e-05)
(-1.000392162788254 -9.308567392494736e-06 -3.404344376942435e-05)
(-1.000374551039146 -1.098189756132401e-05 -3.075133900791309e-05)
(-1.000354974128046 -1.197904074981324e-05 -2.73288487766878e-05)
(-1.000334418357992 -1.246720958807231e-05 -2.4078909055739e-05)
(-1.000347051342058 -5.17309201565083e-06 -2.742458541421325e-05)
(-1.00033700028305 -6.87903773486892e-06 -2.572325586159475e-05)
(-1.000324556545803 -8.198092889074562e-06 -2.362180710961133e-05)
(-1.000310478719407 -9.110489519971853e-06 -2.135262489937878e-05)
(-1.000295449094469 -9.656733906575346e-06 -1.906654729227146e-05)
(-1.000303162647604 -3.952760095093015e-06 -2.075251393591049e-05)
(-1.00029590916585 -5.268986043283906e-06 -1.961085282058168e-05)
(-1.000286874703196 -6.339102766296062e-06 -1.821181813097846e-05)
(-1.000276528674704 -7.140120064726949e-06 -1.666766406406131e-05)
(-1.00026533591195 -7.678087996552619e-06 -1.507037841876583e-05)
(-1.000270574477011 -3.119281608053127e-06 -1.571923519288653e-05)
(-1.000265204425882 -4.180130103256138e-06 -1.494528642087938e-05)
(-1.000258470926604 -5.071628642221387e-06 -1.399533236388775e-05)
(-1.000250684782881 -5.773429019819249e-06 -1.293197612482605e-05)
(-1.000242168248028 -6.28105000318642e-06 -1.181339726555791e-05)
(-1.000246485540888 -2.551899339022367e-06 -1.177411314072554e-05)
(-1.000242390821812 -3.437733953871311e-06 -1.124892365848888e-05)
(-1.000237224151377 -4.200421499426216e-06 -1.060107113192114e-05)
(-1.000231201067528 -4.822313550017587e-06 -9.868361905663503e-06)
(-1.000224551432747 -5.295456284240409e-06 -9.088074942879429e-06)
(-1.000228996805639 -2.16854196117146e-06 -8.556078154716935e-06)
(-1.000225761022673 -2.934041522474918e-06 -8.204800499069485e-06)
(-1.000221655788376 -3.605097842516755e-06 -7.769191010439666e-06)
(-1.000216837397913 -4.166216950873825e-06 -7.272647184693528e-06)
(-1.00021147608433 -4.608353358316913e-06 -6.738962565190818e-06)
(-1.000216826294422 -1.916724272760701e-06 -5.81734296990147e-06)
(-1.000214153185284 -2.601846511232436e-06 -5.593391601635342e-06)
(-1.000210746700441 -3.210222007964594e-06 -5.314472827788006e-06)
(-1.000206726516537 -3.727931685101236e-06 -4.994706370819591e-06)
(-1.000202225201703 -4.145691049083579e-06 -4.648717959806382e-06)
(-1.000209132525596 -1.764077422771398e-06 -3.380191507724567e-06)
(-1.000206799700661 -2.399857122427637e-06 -3.255652281649089e-06)
(-1.000203817316401 -2.969131846412109e-06 -3.100084166546499e-06)
(-1.000200283806541 -3.459004820050874e-06 -2.921057365949731e-06)
(-1.000196309588412 -3.860222400790912e-06 -2.726501765365687e-06)
(-1.000205405873261 -1.691996646381126e-06 -7.393791203161182e-07)
(-1.000203233472755 -2.304296588369291e-06 -7.127368186602061e-07)
(-1.000200451463065 -2.85479151143414e-06 -6.794066444840112e-07)
(-1.000197148514993 -3.331085910953131e-06 -6.409784042695031e-07)
(-1.000193424785596 -3.723986358130116e-06 -5.991265042664329e-07)
(-1.000403851473065 -3.669708088205316e-05 -4.651569010270901e-06)
(-1.000346331798295 -2.752765225491611e-05 -3.407395427921512e-06)
(-1.000303696420524 -2.085151626662888e-05 -2.593936463710276e-06)
(-1.000271959074251 -1.580761877728618e-05 -2.050448786761195e-06)
(-1.000248443234903 -1.184894233526025e-05 -1.6828996430085e-06)
(-1.000231334648058 -8.615141383991276e-06 -1.434801885354446e-06)
(-1.000219408253599 -5.85959178799059e-06 -1.27169524325375e-06)
(-1.000211859300696 -3.405436672029732e-06 -1.172709543266522e-06)
(-1.00020819998242 -7.449687071114847e-07 -1.125928324120951e-06)
(-1.000572986520857 -6.317326565365046e-05 -1.532132870271956e-05)
(-1.00046596852158 -4.636323168837042e-05 -1.025452205446367e-05)
(-1.000392698350154 -3.454864007287884e-05 -7.307357924240353e-06)
(-1.000338497403251 -2.613840318733974e-05 -5.406648928729848e-06)
(-1.000298038778054 -1.993195708424589e-05 -4.148321805730277e-06)
(-1.000267756805165 -1.518864470254077e-05 -3.299257754088835e-06)
(-1.000245224151569 -1.142987525697136e-05 -2.720722008250204e-06)
(-1.000228777760311 -8.334856282030037e-06 -2.328015298553336e-06)
(-1.000217285558542 -5.680774800023741e-06 -2.06878948140808e-06)
(-1.000209999460588 -3.305924655236348e-06 -1.911036315452581e-06)
(-1.000206464155843 -7.236714127112581e-07 -1.83636118138779e-06)
(-1.000538573249745 -5.646410764572266e-05 -1.885272552767586e-05)
(-1.000443623927801 -4.184343038156325e-05 -1.294590590284097e-05)
(-1.000377263953046 -3.167606943040033e-05 -9.398336892712505e-06)
(-1.000327531876701 -2.42557934178878e-05 -7.052202160843447e-06)
(-1.000290046459135 -1.8668861121465e-05 -5.46976167603375e-06)
(-1.0002617762643 -1.432903327275323e-05 -4.387232409289516e-06)
(-1.000240615139665 -1.08430126491699e-05 -3.642017805275518e-06)
(-1.00022509881287 -7.93992555261906e-06 -3.132273591539789e-06)
(-1.000214219470331 -5.427720698350524e-06 -2.793893824907785e-06)
(-1.000207305649142 -3.164707361294426e-06 -2.587173435383187e-06)
(-1.000203946330958 -6.934073050191197e-07 -2.489096602457965e-06)
(-1.000495628060054 -4.898476784227799e-05 -2.046909199381115e-05)
(-1.000417551339716 -3.700346662890958e-05 -1.470688436407074e-05)
(-1.000358800779922 -2.844444691152429e-05 -1.088426581084679e-05)
(-1.000314205491934 -2.206952171292244e-05 -8.294358097475615e-06)
(-1.000280218612927 -1.717180984156504e-05 -6.514001285833143e-06)
(-1.000254352638358 -1.329562426496974e-05 -5.277883463760985e-06)
(-1.000234849253322 -1.013009648144488e-05 -4.416979526518632e-06)
(-1.000220466689608 -7.456442159506324e-06 -3.822756919881245e-06)
(-1.000210339151665 -5.116206781147255e-06 -3.425614724418342e-06)
(-1.000203884006192 -2.99024181769904e-06 -3.181845141714842e-06)
(-1.00020074207708 -6.559516947390901e-07 -3.065866519169971e-06)
(-1.000455299136035 -4.10076156860674e-05 -2.136618207333693e-05)
(-1.000389200488077 -3.191628897777881e-05 -1.564903838407252e-05)
(-1.000338445825411 -2.503452436856964e-05 -1.178935787722174e-05)
(-1.000299309281404 -1.97294480169808e-05 -9.126792888550774e-06)
(-1.000269097456839 -1.554465525083201e-05 -7.265084410826605e-06)
(-1.000245862490815 -1.215711787917748e-05 -5.953099594762671e-06)
(-1.00022819478633 -9.335917300151629e-06 -5.027919322478524e-06)
(-1.000215079640531 -6.913154864729468e-06 -4.382911608612484e-06)
(-1.000205798640593 -4.763919213821042e-06 -3.948514778978775e-06)
(-1.000199862609595 -2.792111005858626e-06 -3.680434035064735e-06)
(-1.00019696746255 -6.133268275476605e-07 -3.552478331221916e-06)
(-1.000415094956392 -3.394383518691436e-05 -2.103874599255323e-05)
(-1.000360295914377 -2.70846129972189e-05 -1.580633362263085e-05)
(-1.000317324351939 -2.168926407687675e-05 -1.215182920510548e-05)
(-1.00028361389995 -1.73836670512989e-05 -9.569869191186862e-06)
(-1.000257221487288 -1.388477035871306e-05 -7.729213503181002e-06)
(-1.000236689322241 -1.097856042346636e-05 -6.41080895757592e-06)
(-1.000220931702746 -8.503830352932185e-06 -5.468467265707793e-06)
(-1.000209149114962 -6.33848745373872e-06 -4.804306221569212e-06)
(-1.000200765316739 -4.388640722829944e-06 -4.353253484977267e-06)
(-1.000195382602189 -2.580061211093719e-06 -4.073241342274747e-06)
(-1.000192751390497 -5.676013277999957e-07 -3.939118220958658e-06)
(-1.000376897087815 -2.774630601422311e-05 -1.995301537166154e-05)
(-1.000332201124993 -2.271198230506514e-05 -1.536600430006344e-05)
(-1.000296394244039 -1.857532906457406e-05 -1.206429423645254e-05)
(-1.000267800363984 -1.51488817542733e-05 -9.672360299505612e-06)
(-1.000245082260812 -1.227277143744925e-05 -7.931171292443126e-06)
(-1.000227194110673 -9.815630704651628e-06 -6.662073600547271e-06)
(-1.000213331113446 -7.672039466430384e-06 -5.741830858757121e-06)
(-1.000202885154038 -5.758112020401423e-06 -5.085704113166675e-06)
(-1.000195409078993 -4.006744874551763e-06 -4.636136171873036e-06)
(-1.000190589600534 -2.363185196696492e-06 -4.35528788635453e-06)
(-1.000188228039016 -5.207180056865545e-07 -4.220259580410044e-06)
(-1.000341910656835 -2.254416439104177e-05 -1.839133230429212e-05)
(-1.000305864021559 -1.891415182146675e-05 -1.451273756109742e-05)
(-1.000276379234862 -1.579227564772756e-05 -1.163562491207055e-05)
(-1.000252416096418 -1.310293257357488e-05 -9.497423670575816e-06)
(-1.000233094558139 -1.07669734205062e-05 -7.907085596201163e-06)
(-1.00021769404458 -8.711029260005853e-06 -6.726882432026947e-06)
(-1.000205639701284 -6.871161955288006e-06 -5.858305109185424e-06)
(-1.000196484711178 -5.193303670894501e-06 -5.231595878369771e-06)
(-1.000189893262089 -3.632138202203085e-06 -4.798243792768839e-06)
(-1.00018562619693 -2.149331884221343e-06 -4.525770690992301e-06)
(-1.000183530113388 -4.743674975049891e-07 -4.394263342022047e-06)
(-1.000310707296327 -1.830458062407321e-05 -1.660197940335074e-05)
(-1.00028184440792 -1.571499964883567e-05 -1.340820516071055e-05)
(-1.000257766107581 -1.338089682081954e-05 -1.09685679814015e-05)
(-1.000237863344461 -1.128718031997999e-05 -9.109450800027204e-06)
(-1.000221583783664 -9.403282297523649e-06 -7.696906381484702e-06)
(-1.000208451156708 -7.693679485956759e-06 -6.629694481018053e-06)
(-1.000198070087492 -6.123349821571177e-06 -5.832557875059051e-06)
(-1.000190123635926 -4.660191371255678e-06 -5.250510941982943e-06)
(-1.000184367894389 -3.27571164476795e-06 -4.844349118877479e-06)
(-1.000180626074508 -1.944776872708752e-06 -4.587316345220531e-06)
(-1.0001787833886 -4.299153123499533e-07 -4.462782084047068e-06)
(-1.000677704357008 -0.0001110116015303454 -2.466727858459873e-05)
(-1.00071337884423 -0.0001249355841579877 -4.195646792065805e-05)
(-1.000610278307328 -6.530569210228026e-05 -3.174368827939342e-05)
(-1.000547219233515 -5.381061733337633e-05 -3.078204632176402e-05)
(-1.000485049285573 -4.28579802623323e-05 -2.861035675406669e-05)
(-1.000432521272092 -3.391342139555561e-05 -2.637258299952658e-05)
(-1.000385691774739 -2.675059277090939e-05 -2.362888621365595e-05)
(-1.000344975606454 -2.113999311580367e-05 -2.076881981277197e-05)
(-1.000848418924522 -0.0002079622641111667 5.24120216951141e-05)
(-1.000864559407782 -0.0001657210266192471 -7.307923591906115e-05)
(-1.000815273788126 -0.0001440907166710194 -7.455337969334667e-05)
(-1.000714168064792 -0.0001120017861838256 -6.855740676878348e-05)
(-1.000582253897581 -5.47163946058295e-05 -4.142950943786558e-05)
(-1.000500592669904 -4.127761566034401e-05 -3.537407758205361e-05)
(-1.000437780424873 -3.144108036924402e-05 -3.062413843459153e-05)
(-1.000384693678301 -2.408255344681002e-05 -2.610735528352423e-05)
(-1.001946236479926 -0.0006636081054695089 -0.0002188585381511384)
(-1.001108801927597 -0.0002985701279207162 -7.660795522989427e-05)
(-1.001681026926922 -0.0005075915580146161 -0.0002455474676078935)
(-1.000932511072977 -0.0002037543674462519 -9.441352644635596e-05)
(-1.001407686447418 -0.0003666505731654484 -0.0002332795259964631)
(-1.000897399532243 -0.0001827250893407231 -0.0001172873295468937)
(-1.001159318224106 -0.0002555429819969174 -0.0002022204317520062)
(-1.000735882428875 -0.0001122963178530504 -7.92982860385525e-05)
(-1.000480873367438 -2.984877670437081e-05 -4.133966843946134e-05)
(-1.000429873696276 -2.697215423871266e-05 -3.28429405610815e-05)
(-1.000947431666985 -0.0001708148604801376 -0.0001620903279165443)
(-1.000681154719162 -8.59742408131263e-05 -7.457192392238208e-05)
(-1.000746931140023 -9.301381473165057e-05 -0.0001045200459781395)
(-1.000592454869663 -5.250466502312618e-05 -4.874914960247554e-05)
(-1.000578417519095 -4.358386273983678e-05 -5.453182773810258e-05)
(-1.00049884960198 -3.650338587291023e-05 -3.988948631323292e-05)
(-1.000611638496016 -1.659453423757354e-05 -7.132682347025372e-05)
(-1.000576388476531 -2.040751251289901e-05 -6.315360644776354e-05)
(-1.000534944830976 -2.368749566422354e-05 -5.294985255624711e-05)
(-1.000461787392787 -5.262677590192383e-05 6.512988859264793e-05)
(-1.000727738276371 -2.139240268401214e-05 -0.0001273013635010819)
(-1.00078189188168 -4.977036287365077e-05 -0.0001434004421922495)
(-1.000714551394031 -5.597186777788008e-05 -0.0001247241335297386)
(-1.000635551576482 -5.569958445662563e-05 -0.0001369598120962858)
(-1.000508276170147 7.384428041485852e-05 -8.957018682778531e-05)
(-1.002355628375218 -0.0002653192071357293 -0.0008616965800155182)
(-1.002049558728352 -0.0003071723112169936 -0.0006736183533357777)
(-1.001724769446027 -0.0003001115190445157 -0.0004950199022092311)
(-1.001422225276186 -0.0002650302252610747 -0.0003495716993729442)
(-1.000995724164583 -0.0001847945920897284 -0.0001809300821967159)
(-1.001698995691521 -2.071519844535817e-05 -7.68859146337384e-05)
(-1.001449860734186 -0.0001658260215497985 -0.0004184010958856898)
(-1.001267030843554 -0.0001722087531699562 -0.000327669187628894)
(-1.00108650098688 -0.0001625657781050109 -0.0002476083083771195)
(-1.000781868361786 3.126860065448486e-06 -0.0001679664149998193)
(-1.000921565687957 -5.213449282126553e-05 -0.0002183355306948571)
(-1.000856629245614 -7.752973749807126e-05 -0.0001920187812876016)
(-1.000811776297879 -6.887695192414042e-05 -0.0001501811724110736)
(-1.000718279742292 -6.85655629150381e-05 -0.000120091001875064)
(-1.000709160654437 -6.847682521383403e-05 -0.0001142569485209935)
(-1.021398716478795 -0.01082292529001615 -0.01280398730661271)
(-1.014029909120715 -0.006880602684186045 -0.005720316055792269)
(-1.007100035926025 -0.003830562153087544 -0.00236136132777664)
(-1.003155119218549 -0.001297580597744917 -0.0005262280840686375)
(-1.002131192676375 -0.0007534728454614068 -0.0002581303007101684)
(-1.010697223442415 -0.004248678087294455 -0.007919370421205871)
(-1.007511462793944 -0.003500244238665378 -0.004194607695526801)
(-1.004990090444527 -0.002023294545020035 -0.001768245525504314)
(-1.003386486336088 -0.001268980108114537 -0.0008736569745011994)
(-1.001822560881876 -0.0005661895337298462 -0.0002844552397252529)
(-1.005956033847723 -0.00134514594507552 -0.003130003296606798)
(-1.004633482623249 -0.001302794649430723 -0.001999251042718919)
(-1.003454187258321 -0.001038053321333114 -0.00118110889356206)
(-1.002539633471773 -0.0007536510170400748 -0.0006796555830345074)
(-1.001509883739615 -0.0004013940669342691 -0.0002652048860250854)
(-1.002610571284016 -0.0003177058508165025 -0.0009943251997406586)
(-1.002248916179787 -0.0003620308608597621 -0.0007641371514813918)
(-1.001871233195058 -0.0003472183949372182 -0.0005506576825470113)
(-1.001525504593494 -0.0003008748493064199 -0.000381265111773379)
(-1.001230462768326 -0.0002754700079052541 -0.0002256706537619787)
(-1.043027883569452 -0.01150608496719563 -0.02190945326385516)
(-1.032835967545297 -0.01144747471422508 -0.01306411683488855)
(-1.027558516463321 -0.01031243294913104 -0.008841251920495572)
(-1.000598099782517 -6.849639343022892e-05 -1.005923212100487e-05)
(-1.000482304353051 -4.976468599870999e-05 -6.609416624871111e-06)
(-1.000694974326737 -0.0001203061174637631 -2.611719899449822e-05)
(-0.9999037118461032 -0.001177854122460268 -0.0009879630045650579)
(-1.002200764300207 -0.0007990657370160003 -0.0002416668988672917)
(-1.00200541788798 -0.0007010167815178132 -0.0002040920569768092)
(-1.001130203990182 -0.0003095986161838492 -7.065562002254633e-05)
(-1.015879535830025 -0.008709866914803077 -0.006388493980411808)
(-1.007737056793568 -0.004461388678908981 -0.002427119017351044)
(-1.003294272992202 -0.00140439779583461 -0.000502851805948736)
(-1.040229191380932 -0.0181309787412916 -0.01514144591494714)
(-1.035290944948766 -0.01627464846921979 -0.01070404410128677)
(-1.063283252734086 -0.001968960391727708 -0.002132744072607918)
(-1.050664535935158 -0.02581667071269084 -0.027977920621754)
(-1.047712757860692 -0.02870765172984296 -0.03120258342183801)
(-1.080304999158814 -0.0399546219378851 -0.06396018471752241)
(-1.124373240607695 -0.00378797820772178 -0.005978730959897627)
(-1.065239303430191 -0.04572388688242099 -0.07236811780121058)
(-1.000665741380883 -3.427015416338568e-06 -0.0001300750443007382)
(-1.000503663654222 -6.199244612082221e-06 -5.173669783785405e-05)
(-1.000416051611338 -4.364539168624678e-06 -3.785555230309847e-05)
(-1.000354054996385 -3.227262776675207e-06 -2.8520420170013e-05)
(-1.000308232339742 -2.45254695304591e-06 -2.154426744566506e-05)
(-1.000274315581766 -1.92684893822569e-06 -1.626402775331833e-05)
(-1.00024932611573 -1.570392150164881e-06 -1.214393029158784e-05)
(-1.000231232690666 -1.330362784678549e-06 -8.802741164895111e-06)
(-1.000218667348872 -1.173140484030023e-06 -5.974146149853328e-06)
(-1.00021073541005 -1.078037026613076e-06 -3.467206219585721e-06)
(-1.000206896651235 -1.033186723056504e-06 -7.579737224385365e-07)
(-1.000748822189485 -1.894261380966217e-05 -0.0001413968897412449)
(-1.002422630803351 -0.0002455568361697267 -0.0009052863656714944)
(-1.00173711211923 -1.895168338663068e-05 -7.98134776710918e-05)
(-1.000930404043082 -4.080945353572798e-05 -0.0002243525918115307)
(-1.032367777726038 -0.01273307059113965 -0.02828681793890677)
(-1.011099727609468 -0.004248641136170337 -0.008489919660200603)
(-1.006285462808893 -0.001342302933216752 -0.003295825802512921)
(-1.00269044230354 -0.0002950058253103613 -0.001048351051971031)
(-1.000893492187529 -6.350429090574435e-05 -1.460642864331516e-05)
(-1.001033188401217 -0.0002729091449210193 -6.468811290838804e-05)
(-1.001070975429336 -4.376239112087336e-05 -1.03852986200748e-05)
(-1.000967380513214 -0.0002342890403854536 -8.217575763293032e-05)
(-1.001003202008536 -3.913004055495969e-05 -1.343644070154662e-05)
(-1.000842884547908 -0.0001669225003859404 -5.112517934309788e-05)
(-1.000860406619798 -5.896276338396389e-05 -1.79025471932514e-05)
(-1.002070743098158 -0.000100488946098996 -3.321525539166117e-05)
(-1.001506488122278 -0.0004623347375155509 -0.0001371207508471635)
(-1.001584260588449 -7.035601933722577e-05 -2.094865811397144e-05)
(-1.001749860364304 -0.000546257682708844 -0.000243297213556583)