/*--------------------------------*- C++ -*----------------------------------*\
  =========                 |
  \\      /  F ield         | OpenFOAM: The Open Source CFD Toolbox
   \\    /   O peration     | Website:  https://openfoam.org
    \\  /    A nd           | Version:  7
     \\/     M anipulation  |
\*---------------------------------------------------------------------------*/
FoamFile
{
    version     2.0;
    format      ascii;
    class       volScalarField;
    location    "0";
    object      mag(grad(Phi));
}
// * * * * * * * * * * * * * * * * * * * * * * * * * * * * * * * * * * * * * //

dimensions      [0 1 -1 0 0 0 0];

internalField   nonuniform List<scalar> 
12684
(
1.000224411200424
1.00021078774048
1.000199669885879
1.000190796873299
1.000183952357539
1.000178965465076
1.000175709955895
1.00017410277954
1.000259943614984
1.000241589979744
1.000225733764042
1.000212218800193
1.000200866981182
1.000191500772964
1.000183956980581
1.000178094596796
1.000173798888398
1.000170983253305
1.000169589881684
1.000239987239335
1.000225328733276
1.000212471307464
1.000201362568667
1.000191919838295
1.000184048278586
1.000177653295382
1.000172648640408
1.000168961469759
1.000166535353479
1.000165331967367
1.000223231847807
1.000211469616112
1.000201010247188
1.000191860718437
1.000183997397041
1.000177379584767
1.000171959584439
1.000167689872672
1.000164528021693
1.000162439950515
1.000161401971222
1.000209345767874
1.000199833636452
1.000191270088004
1.000183694179071
1.00017711745812
1.00017153361146
1.000166926138516
1.000163274196126
1.000160556881045
1.000158756246114
1.000157859316631
1.000198021370616
1.000190238644811
1.000183154135953
1.000176822789737
1.00017127616838
1.000166529086273
1.000162585223269
1.000159441647245
1.000157092306557
1.000155530611046
1.00015475123166
1.000188989885325
1.000182515538039
1.000176564095937
1.000171197228238
1.000166457202896
1.000162371331778
1.000158955961303
1.000156219859454
1.000154166954899
1.000152798444526
1.000152114312971
1.000182027668247
1.000176517464324
1.000171409523024
1.000166767426736
1.000162638691866
1.000159057692071
1.000156048452945
1.000153627149256
1.000151804214067
1.000150586021526
1.000149976136144
1.000176957810492
1.000172124621557
1.000167613670938
1.000163488287796
1.000159798246765
1.000156581688006
1.000153867087068
1.000151675110874
1.000150020252444
1.000148912179514
1.000148356761995
1.000173649513117
1.000169246460846
1.00016511694211
1.000161323421863
1.000157916466918
1.000154936062791
1.000152413071271
1.000150370675726
1.000148825702983
1.000147789745365
1.00014727003401
1.000172016696193
1.000167822498782
1.000163878811096
1.000160247477642
1.000156979263618
1.000154114889733
1.000151686245311
1.000149717634057
1.000148226941303
1.000147226642361
1.000146724597291
1.000280894293095
1.000256443771795
1.000236242048086
1.000219728455362
1.000206416621407
1.00019590147425
1.000187857706112
1.000182034713182
1.000178250755909
1.000176387801905
1.000260402535265
1.000240840401768
1.00030414083072
1.000274379995961
1.000250200087152
1.000230713058721
1.000215189457763
1.000203045982837
1.000193828478005
1.00018719522182
1.000356523748912
1.000329385512091
1.000313696030242
1.000293506342114
1.000280068390011
1.000264849378672
1.000253727261707
1.000242081428393
1.000233231755419
1.000224157524122
1.00021750344547
1.000210271118429
1.000205745047359
1.000199811194632
1.000197380354651
1.000192327609432
1.000192010979085
1.000187504578563
1.000182902674509
1.00018938664019
1.000185141682652
1.000180794559028
1.000411097617853
1.000374159887068
1.000283427392504
1.000310204069474
1.000340526417579
1.000450354442609
1.000487935508737
1.000466991255172
1.000441170839692
1.000413380416562
1.000384854157453
1.00040643289476
1.000392163410812
1.00037455157207
1.00035497457307
1.000334418725482
1.000347051731358
1.000337000637434
1.000324556858301
1.000310478988791
1.000295449322794
1.000303162870682
1.000295909371963
1.00028687488907
1.000276528839054
1.000265336054946
1.000270574605389
1.000265204546267
1.000258471037371
1.00025068488314
1.00024216833751
1.000246485613441
1.000242390890973
1.000237224216374
1.000231201127833
1.000224551488052
1.000228996844585
1.000225761060628
1.000221655825046
1.000216837433029
1.000211476117649
1.000216826313176
1.000214153204308
1.000210746719712
1.000206726535955
1.000202225221098
1.000209132532863
1.000206799708839
1.000203817325612
1.000200283816788
1.000196309599577
1.000205405874966
1.000203233475663
1.00020045146737
1.000197148520746
1.000193424792708
1.000403852156945
1.000346332182853
1.000303696641214
1.000271959201259
1.0002484433065
1.000231334686189
1.000219408271571
1.000211859307181
1.000208199983331
1.00057298863245
1.000465969648408
1.000392698973412
1.000338497759355
1.000298038985238
1.000267756925923
1.000245224220575
1.000228777797747
1.000217285576813
1.000209999467877
1.00020646415779
1.000538575020602
1.00044362488661
1.000377264498691
1.000327532195635
1.000290046648303
1.000261776376555
1.000240615205067
1.000225098849288
1.00021421948896
1.000207305657495
1.000203946334296
1.000495629468602
1.00041755213216
1.000358801243532
1.000314205769777
1.000280218781532
1.000254352740647
1.000234849314372
1.000220466724706
1.000210339170617
1.000203884015723
1.000200742081994
1.000455300204617
1.000389201119602
1.00033844620814
1.000299309517608
1.000269097604009
1.00024586258241
1.000228194842537
1.000215079674025
1.000205798659731
1.000199862620264
1.000196967469047
1.000415095753468
1.000360296405908
1.000317324660887
1.000283614096781
1.000257221613519
1.000236689403036
1.000220931753844
1.000209149146584
1.00020076533584
1.000195382613811
1.000192751398415
1.000376897671585
1.000332201500842
1.000296394489261
1.000267800525462
1.000245082367549
1.000227194181022
1.00021333115935
1.000202885183543
1.000195409097763
1.000190589612808
1.000188228048055
1.00034191107993
1.000305864305654
1.0002763794272
1.000252416227329
1.000233094647343
1.000217694105134
1.000205639742042
1.000196484738343
1.000189893280193
1.000185626209479
1.000183530123154
1.000310707601574
1.00028184462123
1.000257766257222
1.000237863449628
1.00022158385748
1.00020845120827
1.000198070123242
1.000190123660563
1.000184367911485
1.000180626086919
1.000178783398649
1.000677710818654
1.000713387522661
1.000610280941967
1.000547221154023
1.000485050612609
1.00043252219451
1.000385692411453
1.000344976045424
1.000848441902688
1.00086457579563
1.000815286937576
1.000714176680898
1.000582256251355
1.000500594146749
1.000437781387642
1.00038469430884
1.001946480143059
1.001108849381429
1.001681185631497
1.000932536264363
1.001407780740668
1.000897423083496
1.001159371260278
1.000735891871267
1.000480874666772
1.000429874598966
1.000947459366237
1.000681161191025
1.000746940920723
1.000592457434753
1.000578419954323
1.000498851063085
1.000611641175824
1.000576390677685
1.000534946512469
1.000461790896908
1.000727746601948
1.000781903393067
1.000714560731838
1.000635562499756
1.000508282904622
1.002356033877561
1.002049832226023
1.001724936713329
1.001422321360225
1.000995757573684
1.001698998856426
1.001449961866426
1.001267099268331
1.00108654480802
1.000781882462008
1.000921590858964
1.000856650668299
1.000811789936017
1.000718289296971
1.000709169520013
1.021536301766761
1.014069386827371
1.007110089114358
1.00315609645049
1.002131509178089
1.010737179076522
1.007526274647288
1.004993682718829
1.003387669123407
1.001822761259341
1.005961802641081
1.00463631662724
1.003455419288358
1.002540147127926
1.001509999290554
1.002611114675112
1.002249272863537
1.001871444691525
1.001525622358217
1.001230526095887
1.043321417415056
1.032982019050302
1.027648295266991
1.000598102177556
1.000482305612548
1.00069498189931
0.9999048936648161
1.002201111989435
1.00200568389354
1.001130254355018
1.015936959636394
1.007749855137986
1.003295381934981
1.040497364905621
1.035474181926246
1.063287214701221
1.051353999184311
1.048570337871569
1.082934055356477
1.12439551679889
1.068673285844727
1.000665749840882
1.000503665011097
1.000416052337082
1.000354055408154
1.000308232574755
1.000274315715845
1.000249326190682
1.000231232730286
1.000218667367401
1.00021073541664
1.000206896652055
1.000748832357822
1.002423069660846
1.001737115478074
1.000930430018662
1.032833725070394
1.011144296754564
1.006291755359942
1.002691033746305
1.000893494308705
1.001033227692598
1.001070976439755
1.000967411305531
1.001003202863527
1.000842899773527
1.00086040851672
1.002070748687225
1.001506604225119
1.001584263278595
1.001750038847462
1.001852021499668
1.001380059481368
1.001446022897587
1.001152694506561
1.001390433748966
1.001457401431284
1.001034367071576
1.001074351047717
1.001280340668052
1.001337867052675
1.001775834530966
1.001474711514039
1.001548867937423
1.001334736284476
1.001396722800673
1.001195691245475
1.001246218443824
1.000954710386227
1.001006693513388
1.001045327911112
1.001240644648534
1.00129493592191
1.00111818998002
1.001163048732735
1.001475765588589
1.001218177158533
1.001269689915609
1.001149510321177
1.00119646297699
1.00101957033899
1.001051489147872
1.000855587017423
1.000923581289231
1.000874400554999
1.001077031843
1.001119078871516
1.000965597814389
1.000988969883973
1.001206122130568
1.000995804352156
1.001033763167047
1.0008401823864
1.000887996289174
1.000981251001775
1.001004451937076
1.002525427882271
1.001866079170595
1.001765475998695
1.002130193119248
1.002271937796875
1.001625878836755
1.001712682515907
1.002182207182066
1.001805301505239
1.001910750710234
1.001575254721051
1.001657249076312
1.001417881958151
1.001485579930353
1.001822073402129
1.001494461793892
1.001569288641014
1.001364999338017
1.001428100487908
1.001209833317793
1.00126003019726
1.001490646871336
1.001222602710656
1.001274383837528
1.001160100144226
1.001206413558562
1.00101836028082
1.0010554814377
1.001034147017672
1.000827642491749
1.000886135718684
1.001161715415108
1.001209132108721
1.000971641041743
1.001009298480448
1.001613542232668
1.001252874494193
1.001306950464932
1.001493667172065
1.001568034234254
1.001175241519747
1.001223301303718
1.00152043294064
1.001313296983781
1.001372032022496
1.00114652171236
1.001192453602292
1.001056278498625
1.00109441432187
1.001321976638835
1.001130672722214
1.001174431905006
1.001025688124119
1.001060335973084
1.000938745224489
1.000955435869383
1.001127079517475
1.00095591146629
1.000992759812959
1.000902134146767
1.000918335262688
1.000856278209468
1.000873800166963
1.000959779813994
1.001157620028144
1.001204743346429
1.000877989677892
1.000909150194124
1.001089957504442
1.001132025168638
1.000890628465307
1.000855497112158
1.000872369542701
1.001064795239926
1.00110512263879
1.000987426283476
1.001018908458788
1.011557517817522
1.023095285712347
1.0155693109143
1.017455167009021
1.021367730950214
1.008467651495831
1.01068176921101
1.007699787449333
1.009645332827858
1.015617182208835
1.008063459426744
1.010086256885962
1.00607371815132
1.007053674025711
1.008477267938162
1.004911545778451
1.005583449910525
1.005466725972054
1.006275989365476
1.004009869292749
1.004470180641137
1.00345584601878
1.004376578129971
1.004920589079956
1.003627065820265
1.004010704626398
1.002715614980219
1.002942564638762
1.002848142418636
1.002278195149424
1.003096817062864
1.001902395970922
1.002021189614116
1.00247625754467
1.002668210823018
1.014185648494976
1.006841046453539
1.007842357003911
1.007967895339772
1.009928874068487
1.005590291156058
1.006409223821018
1.009401352609432
1.005511279208173
1.006328012987014
1.005193051016555
1.005911748672295
1.004107498852019
1.004580588363408
1.005676711484565
1.003726725923313
1.004128551764993
1.003788305692332
1.004197556633103
1.002965172008222
1.003228700143074
1.003725742006784
1.002568782537334
1.002773584811202
1.00273349419563
1.002961101810843
1.002150595049944
1.002298159470332
1.001932494709429
1.00158605531447
1.001670803916016
1.002350811009424
1.002525181907093
1.001989253048747
1.002117349874788
1.006887026298145
1.004085952039957
1.004542680584807
1.004963445577599
1.005621690059941
1.00353510652477
1.003889565465547
1.005219707460215
1.003727281554648
1.004122955452724
1.003347690366458
1.003669695072026
1.002804936804806
1.003040247893863
1.003800998046474
1.002743548385446
1.002972024053329
1.002635516426423
1.002846091342632
1.002173723853701
1.0023228226616
1.002739045403286
1.002021844669534
1.002153532431816
1.002036402491604
1.002168961164853
1.001674071425356
1.001767000204831
1.00158733391715
1.001296253515548
1.001354280350087
1.001876610555521
1.001991629872387
1.001569035884533
1.001651598922365
1.002814945259474
1.003632249986552
1.004001522951245
1.00234371389859
1.002512199394992
1.003175824957203
1.003467701216352
1.002405910301766
1.001964291047163
1.002087297639355
1.00301887717717
1.003285800870135
1.002559066676826
1.00275817367119
1.001984207207029
1.001607504583889
1.001693146565747
1.002413798833397
1.002593193957273
1.002013204947435
1.002142745756901
1.001603472876974
1.001300928870583
1.001359086264592
1.001892683845995
1.002008565792777
1.001571318638226
1.001653956405298
1.001283126472769
1.001050240907415
1.001091020048633
1.001233141234406
1.001285971357373
1.001477188222639
1.001550994964849
1.050024258203891
1.048026696484641
1.08093818542394
1.037462925001579
1.039382564693522
1.048005827698434
1.059048744981934
1.036233589869779
1.030364061197519
1.044839008678044
1.052854400751939
1.037567944891331
1.027919544536907
1.025292877305267
1.019622631003188
1.019724756170006
1.022953244684994
1.024571574265203
1.033698127594028
1.025555845524328
1.023286061006016
1.000872160824273
1.001051911467112
1.001090669050987
1.001095261860957
1.001138668045984
1.000886269190905
1.000917396229207
1.002964400474535
1.002356805302586
1.003232212574834
1.003259113840969
1.003578428267498
1.002373522242807
1.002552596781974
1.002137061867931
1.001543971694558
1.001625244148745
1.002151413284647
1.002301068010271
1.001634495139338
1.001724885042157
1.001175290164794
1.001422744276776
1.001492601246836
1.001180615214555
1.001230139912512
1.001500638413868
1.001577828953992
1.008048900289157
1.010137624317491
1.016725908844968
1.018990912137701
1.01018855989668
1.021718739379057
1.013515814847638
1.009377870531277
1.005213721907569
1.005965134369397
1.009450745011676
1.012311611073785
1.006027266044029
1.007012601564861
1.003620128853868
1.004623612739686
1.00522635248696
1.003651813215193
1.004044835703019
1.005278547274582
1.006050635030651
1.10396936850501
1.097780890793933
1.083334608071887
1.079136330605277
1.050647992925015
1.059589877066154
1.041433898444564
1.054912575785082
1.028466905476656
1.026391578335001
1.036879870375487
1.032362506183069
1.032058259803451
1.047371352048897
1.093839175480413
1.077787097772312
1.065189972483142
1.076438798442492
1.075300435156592
1.071658737401905
1.060424361801366
1.095756927900137
1.090331608421495
1.077801809073211
1.074025952762516
1.056951918288423
1.069338141325372
1.058755490163438
1.086874077227749
1.072747404792249
1.061442472143171
1.071619671934668
1.051535754750072
1.071469166735888
1.060683437176919
1.053467474890605
1.041685736623917
1.0455875424657
1.049550202320805
1.049430879322492
1.067162602562181
1.057355153723569
1.046269327599973
1.137891382003178
1.127825317723985
1.111859429201143
1.104821901961051
1.10447382207915
1.121512788331846
1.100357025368464
1.082321691556172
1.071539166956328
1.110627457181903
1.084900437521559
1.065552489027446
1.073107426391027
1.092516996987237
1.076785795361016
1.115946366423246
1.088179301077655
1.093332693343158
1.079643458365962
1.075652498504389
1.102498641208319
1.096394753457032
1.093425467567387
1.071200730167854
1.074461001517104
1.053324591040215
1.075285658616857
1.061350237288345
1.066260196167191
1.053223521622288
1.051328624762921
1.060995611539691
1.05117858797748
1.070612522367883
1.002601031707704
1.001910966337124
1.001806194908768
1.001648336844964
1.001275128753936
1.001330928052656
1.000975053588317
1.001176945821749
1.001225464286943
1.040305368262886
1.029514462409642
1.012015789079704
1.037845954872082
1.016334003604761
1.014841650056147
1.005905979893059
1.008094410050299
1.007325750997439
1.004256338003575
1.004746560424381
1.002905923022918
1.003772056143094
1.004166362352483
1.042608962912824
1.050455284726633
1.055914352886948
1.146980066882101
1.135824015456867
1.110019334088576
1.128848905279549
1.08676089007047
1.074556535967319
1.116866416720445
1.088905005770897
1.131976191298974
1.122695190515426
1.092436727042699
1.097994309027467
1.03930636354686
1.045656585780335
1.034322791258523
1.043246103535028
1.030417482499271
1.028129793276036
1.04042732474365
1.023673686731439
1.025747850047495
1.018667035299307
1.021574653666844
1.021880320895578
1.036815266928973
1.045179523537962
1.032564180161485
1.026476200208032
1.068906971022753
1.04031490416998
1.05262235189501
1.000690302478867
1.000766587900301
1.000780693897888
1.00065817809666
1.000669502632811
1.000741218167751
1.000754611198807
1.000884577522363
1.000943236235715
1.000977488869077
1.000764346833057
1.000778459833047
1.000806982004337
1.000822511137139
1.000762058049062
1.000831146381074
1.000775807852606
1.000723279436333
1.000685483469105
1.000736885983847
1.000695963089264
1.001777789953042
1.002007736159808
1.00178243526499
1.001883529917212
1.001941184219423
1.001834634775243
1.00172847163924
1.00119049970934
1.001130352873238
1.001192915389221
1.001085268251962
1.001106758848025
1.00121782546549
1.001166371611394
1.001531000004288
1.001727932616489
1.001611930165641
1.001553677807444
1.001594167238103
1.001655182150568
1.001493372736275
1.001033090947584
1.000941305555563
1.000946323733666
1.000984267565958
1.000965988928922
1.001001412778194
1.001013972335686
1.001283764459102
1.001441452509903
1.001342522216908
1.001314145079944
1.001343850135732
1.001373362436467
1.00125641325578
1.000932829957156
1.000834960127859
1.000913074667786
1.000950811766102
1.000862650088084
1.000968250633423
1.000912246876777
1.001062326400062
1.001182906731885
1.001102748286645
1.001093588093295
1.001114970779432
1.001124313628245
1.001042674196874
1.000748618170683
1.000819417889383
1.000803897477189
1.00079008407155
1.000777026545755
1.000993462889636
1.000951880518644
1.00098240732442
1.000827209934301
1.000846909246261
1.000828584211283
1.000846659113557
1.000752834561171
1.000766755113441
1.00063423833369
1.000692347154607
1.000639472809318
1.000749291594955
1.000762084157802
1.000688849923422
1.000700234589444
1.000760972757503
1.000677402554213
1.00068966787834
1.000689453017586
1.000700294598295
1.000645734909841
1.000642553137986
1.000742864501442
1.000837978903524
1.000855961307366
1.000813359641
1.000829635140498
1.000718285114812
1.000726623551914
1.000798067213362
1.000748087261276
1.000761009481619
1.000690370421271
1.000701731413985
1.000662812712632
1.000673374720488
1.002138715107431
1.002439400049697
1.002133092282604
1.002284227372303
1.002363196077136
1.002202876557332
1.002072384468161
1.001854890837937
1.00211509274406
1.001968394844751
1.001872874837847
1.001928336217943
1.002029132864008
1.001803053454893
1.001562268571728
1.001772928434051
1.00164607240401
1.00159266193973
1.001634164007919
1.001690190995308
1.001523948662722
1.001293125271068
1.001456153468835
1.001352901914162
1.001327398600661
1.001357140832287
1.001383757986362
1.001265911612019
1.001010675977694
1.001015023233747
1.000942982206601
1.00104825930886
1.000962623141435
1.001068447877768
1.000991675202467
1.001504845447236
1.001684525283614
1.001551930099797
1.001657792852534
1.001643927062265
1.001539596161039
1.001516690661788
1.001327375611518
1.001484856822523
1.001405075357607
1.001337781203033
1.001438048560779
1.001367925242465
1.001298796565836
1.001160577634191
1.001294418241452
1.001221104134291
1.001178414866182
1.00124660594625
1.001202364815264
1.001138118105411
1.000996406615275
1.001106742221605
1.0010433011608
1.001019185149494
1.001061777225607
1.00103690815363
1.000980166600235
1.000833380747304
1.000732245298773
1.00074559789227
1.00091181846101
1.000952009399998
1.000761267050788
1.000804553157919
1.000997132522282
1.000941984724348
1.000994823059207
1.000910145814808
1.000927617587931
1.00101381389797
1.000979257860682
1.000921092428521
1.000876887935122
1.00081733126234
1.000924143401074
1.00084369946844
1.000940633686499
1.000905982268864
1.000824921854896
1.000764183143928
1.000748896080517
1.000960710579281
1.000988215880878
1.000972610568504
1.000897340925079
1.000732794831326
1.000672047174827
1.000687582471913
1.000812311664322
1.00079922724243
1.000756911288008
1.000771317373212
1.023038622682557
1.019349102155699
1.016221744848968
1.016817911292468
1.016751593852022
1.020139630820134
1.01513708437732
1.012082203914009
1.010010273669482
1.010105692655415
1.010799089425076
1.012188441468999
1.011917128754687
1.009590629002705
1.00622525825506
1.007748107207057
1.006242293352665
1.006506952816913
1.007050485844861
1.006746392419102
1.005787246965841
1.003496827692451
1.003302759262073
1.003508319388606
1.003011373621758
1.003145934827034
1.003685791528824
1.003335107244593
1.002333895005836
1.002340786060742
1.002203724815324
1.002057781894934
1.002125468474107
1.002426332077009
1.002254080427541
1.008912427437354
1.012850412575395
1.009285477501743
1.009252899206947
1.01120475713993
1.010027421880208
1.008635994472797
1.006452231653669
1.008709138447796
1.006704845254004
1.006557188300218
1.007332572803287
1.007122874090271
1.005996821860731
1.004391271032009
1.005325014276359
1.004526006539725
1.004556189197305
1.004803781705923
1.004836050461762
1.004153985309142
1.00301169894702
1.003552913782312
1.003084003745643
1.003157989323066
1.003223636268527
1.003303322395078
1.002887872762206
1.001945745628853
1.001876903963649
1.001743013997052
1.001980181671548
1.001792872957674
1.002043088983841
1.001888109933184
1.005283591538566
1.00640095783665
1.005234302559024
1.005632004366387
1.006029099931656
1.00558156871672
1.004966484468068
1.004091607822724
1.004919955820766
1.004319418570137
1.004148973371077
1.004569926175902
1.004380958510153
1.00388488065701
1.003061179832882
1.003624352688282
1.003200802292591
1.003153908231802
1.003348287601536
1.003297048218757
1.00293516228943
1.002269115836014
1.002637853622241
1.002352653328829
1.002359671652329
1.002437837706553
1.002445108466733
1.002194107809542
1.001577455914942
1.001548258422289
1.001436151660407
1.00162162293195
1.001471020462133
1.001665179651236
1.00153795719845
1.002915927371421
1.002711283013714
1.002904026296282
1.002525782105554
1.002620309848616
1.003025120353052
1.002802124882014
1.002446994332744
1.002326397449453
1.002153958428776
1.002474554909909
1.002225407003164
1.002566109895521
1.002362605304383
1.001988188548859
1.001927095751596
1.001780735354861
1.002033843709949
1.001831651169958
1.002098555787474
1.001929289738998
1.001588925293934
1.00156413707629
1.001447172733945
1.001637983512639
1.001482154265147
1.001681873267289
1.001549248456941
1.001263579452689
1.001256697929722
1.001167651167786
1.001307061668025
1.001191456326681
1.001336268806233
1.00123718393291
1.040195758207384
1.045981020081635
1.050459341364444
1.049515850810711
1.046561689870787
1.043058320058908
1.057234682112053
1.029763280115175
1.032214131771428
1.035910252746279
1.035037498714451
1.034168230715948
1.031466835275181
1.038296912280205
1.025183353082972
1.03009564470605
1.027257598930547
1.026463416984582
1.031850017811631
1.029158087027782
1.028729316851295
1.000707789381895
1.000759308407396
1.000807437558234
1.000708572593995
1.000721920621388
1.000809588435036
1.000825826784424
1.000942057038421
1.000306495166474
1.000962483492169
1.000896515726134
1.000922802364971
1.000856037322118
1.000918370362784
1.002595707845214
1.00242298204521
1.002277725353083
1.002265422176552
1.002514128717722
1.002346204016176
1.002499221241054
1.001936990978986
1.002070416897984
1.001833011417847
1.0020601941851
1.001887977422354
1.002128205420195
1.001879429089021
1.001266057735305
1.001152331694078
1.001217365420707
1.001149209665595
1.001243120025366
1.001172204557065
1.001239406193069
1.01692795781182
1.012757577157845
1.013201867625128
1.014792247792007
1.011185289247141
1.012605962045737
1.012308311674849
1.007858372420327
1.00864804223791
1.006702507476978
1.008112850265886
1.007297556621783
1.009813662255978
1.007197424653413
1.004043733520852
1.003454146419406
1.00367604414723
1.003426411186416
1.003869416623315
1.003596964646392
1.003834735656665
1.11144675270324
1.122605598938782
1.121264229418637
1.112594726832912
1.044559788913071
1.039724911554092
1.036380325744956
1.048057711723668
1.038832878097317
1.043473650314696
1.042570918504364
1.031742531661736
1.032710969801526
1.029450762735187
1.033653782921565
1.034739093274067
1.03113402724819
1.037800772414705
1.096245664307675
1.109679502212327
1.101486440886937
1.10362377101328
1.071519508307225
1.067105193052702
1.062815662679976
1.067765092892585
1.066589024885035
1.067230636466062
1.072099603046695
1.053962289896645
1.054391356567568
1.060996486927746
1.054276198706603
1.057558195914161
1.057764443922328
1.057584861061148
1.061534310612038
1.055878220421955
1.064248447066434
1.054000568955541
1.045237688325575
1.047143989431284
1.051033693774139
1.051382354853785
1.047521550695123
1.050019323338757
1.053904700220913
1.156060054542289
1.171559040716109
1.169068648258505
1.158212733936094
1.113135708021246
1.118097516309013
1.106926630836985
1.125688424415204
1.089457017920834
1.08522385538216
1.097186699950934
1.085165142086538
1.092226006751316
1.079129109207654
1.089565032431455
1.10519828375533
1.122946706983731
1.112647436229189
1.116891643313656
1.115585195072663
1.111427243871091
1.106308153035993
1.100187270223055
1.087194156964808
1.083581041163829
1.095317557312012
1.075917093148975
1.072978519338817
1.081323351776836
1.065963234696151
1.077708849056016
1.072660809433645
1.070030444413647
1.000762192794863
1.00082856179263
1.000879698714698
1.002317219745011
1.002510621873595
1.002189600271145
1.002484359146545
1.002262658546091
1.002575805491165
1.002241127112173
1.001600662957968
1.001722072464506
1.001584448779596
1.00177167510155
1.001571659719107
1.001756110145153
1.001613866466131
1.001041956777166
1.000956038265769
1.001008975552654
1.000947867530671
1.001029121556327
1.000964199652276
1.001023566138101
1.024326478193907
1.026009016738989
1.011472067415192
1.013407296071019
1.009607151148067
1.011942313124268
1.010397824555038
1.015046292888226
1.010234734095653
1.006140282331425
1.006802498662372
1.005492349483365
1.006616077626153
1.005868850626776
1.007133959446447
1.005733507715951
1.003222562188106
1.002796595357667
1.00299979772808
1.00276431447219
1.003127896931637
1.002874913211023
1.003087892789627
1.00096266642102
1.00096237013021
1.001050964117103
1.001011054414182
1.001031464834004
1.000976222561896
1.000937813866614
1.000981999410501
1.00099452459283
1.00106422138633
1.001051546222202
1.001045847622859
1.000986326146113
1.000982249959161
1.000942794458267
1.000990091264485
1.000985251681525
1.000906763078387
1.00092172150111
1.001009040632774
1.000923781080788
1.000955836459999
1.001028296436255
1.000997539750311
1.000937354177203
1.000932931237233
1.001022329981025
1.000960563807581
1.001811397188157
1.002049578472036
1.001888207749682
1.002000438516293
1.001980538589197
1.001870226987819
1.001828366176212
1.001632521019622
1.001636598441159
1.001545008383344
1.001466486373634
1.001503022985649
1.001681277376722
1.00159015851625
1.001661344173536
1.001727034251674
1.001571112963092
1.001540351236064
1.001527849756925
1.001711691694403
1.001675877175698
1.001718254863109
1.0018177572521
1.001800381748511
1.001613388242622
1.001656805785995
1.001871753483905
1.00167187997742
1.00174983632812
1.001927195567162
1.001834693566811
1.001701256122929
1.001686353999445
1.001908583599515
1.001765773449731
1.001581273105681
1.001424136980643
1.00149060081437
1.001412701125427
1.001458742133461
1.001528177759911
1.001541290801624
1.001608463238939
1.001494081938325
1.001566584820488
1.001434869268437
1.001482249554417
1.001553719477535
1.001622166049167
1.001206915089218
1.001145211927351
1.001243297725317
1.001128668822174
1.001121511463575
1.001234776626378
1.001215119695989
1.001283600136132
1.001286361924329
1.001423577099087
1.001355643470222
1.001387287521716
1.001315066996753
1.001256063459292
1.001302293049038
1.001344343435896
1.001446079570681
1.001419574267792
1.00140877002275
1.001334549455508
1.001311680579495
1.001161326189391
1.001060555063318
1.001054226562042
1.00110848950097
1.001081245157049
1.001130617490064
1.001138175434527
1.001177073914546
1.001102344387951
1.001067719619975
1.001153174014298
1.001095399343101
1.00114565781174
1.001184948668285
1.001250179382834
1.001318807789169
1.001190185377834
1.00130881563744
1.001348885675167
1.001215170715663
1.001223897940927
1.001268025704517
1.001379571908042
1.00124066210174
1.001328149303657
1.001369305210863
1.001232143236819
1.001276986294635
1.001556571977577
1.00175976830277
1.001699455087615
1.00163558298419
1.001621704146204
1.001684613389968
1.001569451296024
1.001467892966872
1.001542919253207
1.001511404237568
1.001373146671727
1.001405360266911
1.001582811322954
1.001433032226074
1.001491564881337
1.001623597595354
1.001536324148859
1.001438189747733
1.001427208435308
1.00160993227259
1.001503477028713
1.001418839223707
1.001438661781368
1.001365416328867
1.001288627752885
1.00147384477474
1.001317377631873
1.001386006789738
1.001441131645467
1.001509779914539
1.001386247216155
1.001346694702099
1.001497747184272
1.001336889627054
1.00145234614834
1.00136367160923
1.001280426607781
1.001242162850042
1.001220771410767
1.001269035383891
1.001308790599537
1.001333120257996
1.001384397670269
1.001337640810175
1.001296398157348
1.001237729031708
1.001287254567844
1.001328001316683
1.00139481415011
1.001046209310513
1.000950638052239