/*--------------------------------*- C++ -*----------------------------------*\
  =========                 |
  \\      /  F ield         | OpenFOAM: The Open Source CFD Toolbox
   \\    /   O peration     | Website:  https://openfoam.org
    \\  /    A nd           | Version:  7
     \\/     M anipulation  |
\*---------------------------------------------------------------------------*/
FoamFile
{
    version     2.0;
    format      ascii;
    class       volScalarField;
    location    "0";
    object      p;
}
// * * * * * * * * * * * * * * * * * * * * * * * * * * * * * * * * * * * * * //

dimensions      [0 2 -2 0 0 0 0];

internalField   nonuniform List<scalar> 
12684
(
-0.0003661667221071741
-0.0003435053005780349
-0.0003251311845280012
-0.0003105454546373876
-0.0002993426156774876
-0.0002912072193279053
-0.0002859087435870396
-0.0002832966477464304
-0.0004294170985718813
-0.000397821727169929
-0.0003707847634555268
-0.0003479334119251445
-0.0003288797774522787
-0.0003132571690141601
-0.0003007401016044317
-0.0002910541627092879
-0.0002839799648145139
-0.0002793539607203986
-0.0002770678837440188
-0.0003980531991184585
-0.0003726394461048287
-0.0003505438167404907
-0.0003316034449474429
-0.0003156151604681926
-0.0003023669737305655
-0.0002916583178489925
-0.0002833123880890879
-0.0002771832302782809
-0.0002731595292505737
-0.0002711664546503678
-0.000371601482816226
-0.0003510711542936239
-0.0003329625325255793
-0.0003172377274026746
-0.0003038115427061377
-0.0002925761886405206
-0.0002834188275752779
-0.0002762335134885457
-0.0002709290047798917
-0.0002674336757104816
-0.0002656984567869008
-0.0003495938699355076
-0.0003328859547128402
-0.0003179556888225274
-0.0003048368426036885
-0.0002935174723770117
-0.0002839582491679591
-0.0002761064969564583
-0.0002699065052567575
-0.0002653068322752524
-0.0002622652866069257
-0.0002607521628250749
-0.0003315874610524349
-0.0003178375427238725
-0.0003054056047879005
-0.0002943644375372863
-0.0002847461380154547
-0.0002765552117300956
-0.0002697792753893753
-0.0002643974177583584
-0.000260386480588845
-0.0002577255889285306
-0.0002563992455160468
-0.0003171888987450563
-0.0003056902841867528
-0.0002951848758113457
-0.0002857651449200979
-0.0002774886546116056
-0.0002703871934492362
-0.0002644746970624283
-0.0002597537817103246
-0.0002562209015283279
-0.000253870236732491
-0.0002526964515623925
-0.000306066407425071
-0.0002962351401858438
-0.0002871718380014059
-0.0002789777481026638
-0.0002717244602601383
-0.0002654601909374417
-0.0002602155712889734
-0.0002560086726937805
-0.0002528491544118731
-0.0002507415120289161
-0.0002496874545143689
-0.0002979546661463105
-0.0002892988797667436
-0.0002812607028006543
-0.000273944502325696
-0.0002674291259537439
-0.000261772258256381
-0.0002570146941251627
-0.0002531842391965008
-0.0002502990634196003
-0.0002483704168472767
-0.0002474046699397568
-0.0002926558576543511
-0.0002847490683867036
-0.0002773679477259221
-0.0002706174921869497
-0.0002645799829847633
-0.0002593181611781116
-0.0002548785409790285
-0.0002512945728581578
-0.0002485894589935743
-0.0002467784956777884
-0.0002458708696264215
-0.0002900390222560901
-0.0002824965502444574
-0.000275436158565858
-0.0002689627605879229
-0.0002631599612898755
-0.0002580926734114077
-0.0002538099671002764
-0.0002503478699468668
-0.0002477319123630202
-0.0002459792791193366
-0.0002451004787384723
-0.0004658674713889361
-0.0004268612359780504
-0.0003945110193748735
-0.0003679772445457672
-0.0003465267291551169
-0.0003295434758822552
-0.000316528434244464
-0.0003070941713385292
-0.0003009579578620691
-0.0002979353356505899
-0.0004267927600887139
-0.0003937060340845105
-0.0005067790752588274
-0.0004585873051879267
-0.0004193214260254646
-0.0003875910192176587
-0.0003622556123936799
-0.0003423995822407633
-0.0003273060593327056
-0.0003164327167939184
-0.0006006205285610988
-0.0005517290962707832
-0.0005292734541507794
-0.000492780233914555
-0.0004731930220109422
-0.0004456108711504705
-0.0004292162927013153
-0.0004080632374227108
-0.0003949684455965155
-0.0003784550647370122
-0.0003686685992610001
-0.0003554857712530689
-0.00034899712532619
-0.0003381666095728438
-0.0003349983662667336
-0.000325766505835544
-0.0003260104365591634
-0.0003177709838403416
-0.0003093912743857545
-0.0003216169579200773
-0.0003138527409695993
-0.0003059317256265357
-0.0006915681546715028
-0.0006252350340467887
-0.0004661418434293105
-0.0005124430809997302
-0.0005655550228799073
-0.0007626711443480203
-0.000848509521268193
-0.0008070153673740011
-0.0007584756923319884
-0.0007050919300354376
-0.0006522713164009652
-0.000702535384554322
-0.0006752190361883409
-0.0006420913585488219
-0.0006052528715817184
-0.000567166213715437
-0.0005976228787807708
-0.0005787121314031082
-0.0005554142637996345
-0.0005291440511223667
-0.0005013501607595967
-0.0005207675813749099
-0.0005072235108775264
-0.0004903761689737659
-0.0004711485207723106
-0.0004504816348436367
-0.0004639936415838188
-0.0004540093881500196
-0.0004414913883973558
-0.0004270568753773181
-0.0004113474777415015
-0.0004221605601599755
-0.0004145740526456283
-0.0004049941393121805
-0.0003938487690083247
-0.0003815922331523228
-0.0003918548234589659
-0.0003858799252750075
-0.0003782867476861166
-0.000369384937995125
-0.0003595095505130498
-0.0003707966209625949
-0.0003658764511697563
-0.0003595898553038423
-0.000352173362617873
-0.0003438871755142489
-0.0003574979125567704
-0.0003532152553359289
-0.0003477212482637593
-0.0003412100255870639
-0.0003338978930965354
-0.0003510602127605162
-0.000347078013875731
-0.0003419583770907185
-0.0003358759580591233
-0.0003290267539630861
-0.0006307796348244381
-0.0005416006388555426
-0.0004758164048107447
-0.0004270278273708346
-0.0003909760195006465
-0.000364798675003921
-0.0003465758971336308
-0.0003350523621963445
-0.0003294694040885998
-0.0008911894404564026
-0.0007312230670182891
-0.0006156250566810716
-0.000530886296822565
-0.0004680735447287821
-0.0004212925812578445
-0.0003866035671923996
-0.0003613459093852968
-0.0003437265651810952
-0.000332568392181299
-0.0003271578050228198
-0.0008467277932045408
-0.0007005151171338922
-0.0005942114046552918
-0.0005156798252669512
-0.0004570344934960018
-0.0004130781548706495
-0.0003803138436091147
-0.0003563599965682603
-0.0003395988983938712
-0.0003289616336378931
-0.0003237971685332153
-0.0007905226478587495
-0.0006626264588721048
-0.000567887856106277
-0.0004969075307428377
-0.0004433192833949729
-0.0004028051762873001
-0.0003724002005708165
-0.000350053553462352
-0.0003343553179382534
-0.0003243653485106891
-0.0003195073538949398
-0.0007301001691117931
-0.000620934851159896
-0.000538474350234048
-0.0004756804403602186
-0.0004276525382578012
-0.0003909661279355119
-0.0003632095421597064
-0.0003426810104670739
-0.0003281923971743034
-0.0003189422898309815
-0.0003144355024618694
-0.0006691119098049292
-0.0005779904243899134
-0.0005076377420689658
-0.0004530958026100315
-0.0004107757600528237
-0.0003780770501491495
-0.0003531126303100709
-0.0003345191283986618
-0.0003213272518222333
-0.0003128743470969574
-0.0003087471396605807
-0.0006106946038215117
-0.0005358927692286321
-0.0004768059360033456
-0.0004301391222094667
-0.0003933816476419733
-0.000364635616024395
-0.0003424767003995385
-0.000325848371898612
-0.0003139841500516117
-0.0003063521200142462
-0.000302617090438339
-0.0005568600441904457
-0.0004961303081977089
-0.0004470788249583671
-0.0004076203678717836
-0.0003760690827925576
-0.0003510898732591389
-0.000331643586884957
-0.0003169371989574507
-0.0003063827114814383
-0.0002995654157399893
-0.0002962210397160216
-0.0005085797339498971
-0.0004596104776179796
-0.0004192205347069346
-0.0003861532310302841
-0.0003593215784898403
-0.0003378198801223332
-0.0003209150729777756
-0.0003080305161927768
-0.0002987286172418345
-0.0002926953936271873
-0.0002897283695693348
-0.001050587908210725
-0.001113246766041457
-0.000964793915869275
-0.0008757871031970759
-0.0007877704393576483
-0.0007054627816846244
-0.0006317670157714894
-0.0005674980770515371
-0.001327955731306208
-0.001347434404876281
-0.001279926529678469
-0.00113713813703063
-0.0009406992120216741
-0.0008239312236783691
-0.0007225413173143934
-0.0006368231475260175
-0.002873398408088223
-0.001672258971185484
-0.00253266949445033
-0.001427700242127068
-0.002166757969876991
-0.001382893070534677
-0.001820086406556107
-0.001179384004842382
-0.0008087204892032031
-0.0007169229365808037
-0.001507780976548091
-0.001102821919306318
-0.001224775976250859
-0.0009701112737337061
-0.0009629799558945142
-0.0008312018954769947
-0.001056475302963618
-0.0009894536945960234
-0.0009165232298054079
-0.0008346232381286319
-0.001255420314426963
-0.001335758728334861
-0.00121692138845636
-0.001088607392384252
-0.000909556122300186
-0.003862281978999527
-0.00333995135414442
-0.002792901554571793
-0.002289911198119344
-0.001590291729324062
-0.002914377759875859
-0.002403956748605537
-0.002088396723140155
-0.001780334049639381
-0.001324615694168951
-0.001570538909561573
-0.001455127601847889
-0.00137089547890925
-0.001213775157100428
-0.001172182643693607
-0.02781704642270422
-0.018922412975586
-0.009608721157526869
-0.004550163257310343
-0.003134076805513519
-0.01464419933779358
-0.01058376221883266
-0.007251741832387116
-0.004993183641314074
-0.00273968134379884
-0.009112729757099487
-0.007073117385128201
-0.005273885512168832
-0.003884718765633446
-0.002321870419652283
-0.004257363076406259
-0.003644970593141976
-0.00301400370389597
-0.00244390766410931
-0.00193190739579409
-0.05732956178861197
-0.04378225781522969
-0.03669179224365388
-0.0009236802607412591
-0.0007531085767464654
-0.001071154319236299
-0.001200412985487896
-0.003220549886687393
-0.002947535088131333
-0.001699456151219344
-0.02078432526007199
-0.01019743682604883
-0.004715866481240823
-0.05012331892364534
-0.04400291651304272
-0.08009833285592698
-0.06125463667624137
-0.05656543212244468
-0.0897260071391428
-0.1378529522089327
-0.06984871679418894
-0.001125120518717932
-0.0008813419326223864
-0.0007220725179011871
-0.0006108976960175466
-0.0005302129947240719
-0.0004709175816854815
-0.0004273919959942364
-0.0003959525657659401
-0.0003741547795914169
-0.0003604101713246032
-0.0003537626555375454
-0.001279588311228179
-0.003977503626154021
-0.002984169758508141
-0.001590790153031128
-0.04076022374082919
-0.01516763170330229
-0.00960006205149706
-0.004393699296657547
-0.001393974552332425
-0.001560888198491708
-0.001664155994574591
-0.001475795435708941
-0.001569888650176962
-0.001294162922610005
-0.001342635367050441
-0.00318307108450257
-0.00224720066278582
-0.002443334552216209
-0.002622446085741024
-0.002879037105556343
-0.002083345980942254
-0.002251491139373308
-0.001786950911398476
-0.002080257994647412
-0.002250222002347415
-0.001575382681537644
-0.001679276516241094
-0.00193725908075891
-0.002084663085775252
-0.002771635755674824
-0.002257738972331264
-0.002446899119078748
-0.002023714516393254
-0.002182324008425267
-0.001837722687363271
-0.001968270045157784
-0.001513502486853674
-0.001538322171785993
-0.001640100259120697
-0.00188492232453476
-0.00202465157019867
-0.001720893760999338
-0.001837657143008483
-0.002340714143110189
-0.001903633250428558
-0.002037157836917769
-0.001775014878883234
-0.001896412279427897
-0.001593947416564534
-0.001681207138319045
-0.0013492415405824
-0.001471038610227817
-0.001390703731519866
-0.001665054914664417
-0.001774419810679086
-0.001507034467290409
-0.001578819612894767
-0.001942678437013165
-0.001583014405993529
-0.001686491523927622
-0.001411839872456035
-0.001437215317528968
-0.001536111835109582
-0.00161013947534663
-0.004300940177234685
-0.003196074988719892
-0.002932307008931152
-0.003476398464763135
-0.003843616941685789
-0.002689406019677798
-0.002917129357270559
-0.003682989459016415
-0.00292753370970794
-0.003201152482966088
-0.002601796344291374
-0.002816953047239365
-0.002331116516257056
-0.00250887495944317
-0.003045113713257531
-0.002409260302238133
-0.00260416213858882
-0.002240726272960449
-0.00240648240162286
-0.001977045239404874
-0.002109684909287374
-0.002468210169252477
-0.001961098708055223
-0.002097949451889629
-0.001892971547508273
-0.002015937808723489
-0.001653730142527294
-0.001755752148412083
-0.001695388497702632
-0.001427623939910858
-0.001467024956895268
-0.001861296887739424
-0.001987562885576036
-0.001577518896838448
-0.001677905558763034
-0.002689474130444401
-0.002106908799863647
-0.002250532632739121
-0.002479953484001549
-0.002675825954551858
-0.001969883555871392
-0.002098202429562783
-0.002589606230261616
-0.002167750270953723
-0.002322437031274533
-0.001919446173634345
-0.002042188637354397
-0.001762104524091158
-0.001863617266232203
-0.002232912171980135
-0.001855283642080869
-0.001971530748540141
-0.001709260158471344
-0.001801347152998323
-0.001550403550709393
-0.001612638940908516
-0.001888609253337288
-0.001562733618911884
-0.001658247284764961
-0.001497993487470326
-0.001558824633508684
-0.001411156197529335
-0.001459708810073121
-0.001659413095044728
-0.00195160755030706
-0.002076729804376809
-0.00148943399694
-0.001571631655027399
-0.0018317894978152
-0.001944836693768504
-0.001540457933682229
-0.001448017952868549
-0.001490644642429719
-0.001787394722888881
-0.001896135384689617
-0.001651164199075243
-0.001738351804805325
-0.01548502958918092
-0.03222773358086185
-0.02447894966838087
-0.02301174972819212
-0.02993249686424793
-0.01160784340078821
-0.0166935687062252
-0.0101472928813215
-0.01446692038114197
-0.02222623435133136
-0.0110958438392271
-0.01575305145095036
-0.008635839937701107
-0.01097497575283475
-0.01265232389148659
-0.006879872743334544
-0.008472996155643378
-0.007819042504344459
-0.009755155055124094
-0.005823529021865861
-0.006939499697845269
-0.005279060447556078
-0.006181820892094373
-0.007480598033083893
-0.005291159662977285
-0.006225534257369905
-0.004008248662805733
-0.004568208546831798
-0.004129241348935483
-0.003497973236859143
-0.00473721731982666
-0.002843106189374971
-0.003140836997285896
-0.003667443756215312
-0.004142973896628433
-0.02247129025906093
-0.01026189062773215
-0.01288259139270407
-0.01106689351626518
-0.01561627027790391
-0.008410292404263484
-0.01042210706445501
-0.01477380986467672
-0.007969446376250513
-0.009936766473725671
-0.007815824729301086
-0.009582962978251135
-0.006195651729146777
-0.007363109156519195
-0.008901058450405154
-0.005474048356083111
-0.006455170034357429
-0.005719591662546362
-0.006731429253141499
-0.004491208958390688
-0.005147260726023626
-0.005821905320960134
-0.003821503236197384
-0.004329303452405144
-0.004145042106627765
-0.004713095520113001
-0.003272652365154245
-0.00364381859446957
-0.003015706224381643
-0.002425195283879215
-0.002640714741227467
-0.003506931910364928
-0.003940857333795292
-0.003030731947840396
-0.003353789484261163
-0.01134484620745232
-0.006468592025745461
-0.007620671135723217
-0.007574075190518552
-0.00920222610040072
-0.005574337209116287
-0.006469082628344424
-0.008517664103206691
-0.005687159993390228
-0.006670494764932878
-0.005272235281593127
-0.006085520981510504
-0.004403066691154383
-0.004998827660938566
-0.006134142081757388
-0.004193257321735686
-0.004765373678056649
-0.004133377939198095
-0.004667070487064972
-0.003401861556312836
-0.003781194637100271
-0.004383857148864163
-0.003098537584506647
-0.003431298113357341
-0.003185289604032591
-0.003523047605241874
-0.002615841362182787
-0.002853883286323727
-0.002519229741755717
-0.002025195186920412
-0.00217523059726797
-0.002878194516873075
-0.003169534594908825
-0.002451298575133425
-0.002663236137851328
-0.004782793997362974
-0.005801209702244806
-0.006738389178289852
-0.003804032976971411
-0.004238538357362071
-0.005050546758034633
-0.005791698512191037
-0.004049039715454123
-0.003168262836171218
-0.003486021219584367
-0.004794240287022182
-0.005472340319399251
-0.004048418536502551
-0.004555270988043546
-0.003305493828413853
-0.002578263661921767
-0.002800300185023793
-0.003814296420796401
-0.00427138358739635
-0.003172212317842365
-0.00350339625089372
-0.002646051723045739
-0.002077094380688814
-0.002229485450196557
-0.002980019531198696
-0.003276692974133512
-0.002469689413296564
-0.002682385562267179
-0.002069026713008881
-0.001670866940255535
-0.001780952904282785
-0.001966929415505415
-0.002106144438995431
-0.002320792545943653
-0.002511215711727551
-0.06984646803858251
-0.06048821970363711
-0.1002982037229234
-0.05024243831460761
-0.05576065135499946
-0.06053617769885459
-0.07629975188139272
-0.05142539834083144
-0.03996473293076623
-0.05587598538769973
-0.06869827299992369
-0.0506659212363736
-0.03999036581775976
-0.03467381554577628
-0.02850241281779201
-0.02745514832344454
-0.03095246029733254
-0.03425207138850055
-0.04584769900955063
-0.03673104530461251
-0.03208435261915103
-0.001441386457585262
-0.001584249270613906
-0.001691365688020372
-0.001641760943133908
-0.001755776289935368
-0.001342694680253186
-0.001427151037403717
-0.004269340219874192
-0.003605616301107188
-0.004921421556677959
-0.00461547945558301
-0.005384817999180442
-0.003430923870849476
-0.003870507743597686
-0.00327400596976135
-0.002294830744806325
-0.002499632390428088
-0.003127095952793596
-0.003496456233113998
-0.0024088516021413
-0.002635414867108165
-0.001818105407279242
-0.002121594653992516
-0.002298566574430374
-0.001764432232211796
-0.00189268469201674
-0.00222021189913573
-0.002414785726101432
-0.01045937256616818
-0.01508233499406325
-0.0235127798026861
-0.02355421226768832
-0.01221726033280421
-0.02887810448889087
-0.0192046964992029
-0.01400134154379307
-0.007214852118187232
-0.008983081454743202
-0.01150971231000731
-0.01760533768429371
-0.008068498317022959
-0.01034144230486975
-0.005501924084687712
-0.006461513510157049
-0.007890920774977018
-0.005127687866518147
-0.0060676744977787
-0.007170332174092112
-0.008968513420064694
-0.1148321232162415
-0.1075511536719498
-0.09539678042616659
-0.09006099991361771
-0.06047320128356448
-0.07592752468208525
-0.0544838757970569
-0.06514387325387203
-0.03635068751715415
-0.03621705731659737
-0.04906263253387315
-0.03974256558767287
-0.04177655351960956
-0.05810079752338144
-0.1027870213350274
-0.08247529999819925
-0.07143258607574697
-0.08655917412755948
-0.09376575082161244
-0.08820860963866466
-0.07576668541456225
-0.1095863046268287
-0.1026550189763175
-0.09168829486717395
-0.0865397228212732
-0.06688758082629123
-0.08463782242219231
-0.07299729039057026
-0.0981545999407729
-0.0791664296915062
-0.06884185851435615
-0.08319741739297892
-0.04694020312691362
-0.07413681710497365
-0.06514665271163812
-0.05274208786783188
-0.04605586218469213
-0.04920252220994167
-0.05534809252717082
-0.04632597927996206
-0.07143407398534679
-0.0629231750012951
-0.04874024235762286
-0.1463619055245426
-0.1351995267747124
-0.1221751832099404
-0.1140640146746525
-0.1025902875716583
-0.1279993470933213
-0.1087707998633734
-0.08634233010124776
-0.08170013662935433
-0.1210170302038147
-0.1017224871248026
-0.07565856454169956
-0.08878029642693674
-0.1036152499798922
-0.08278171456912541
-0.1276006095974515
-0.106588444621484
-0.1141909522193375
-0.09868398725514271
-0.09265225140172416
-0.1162465943584169
-0.1085812380251126
-0.08956320698344625
-0.0623014774985385
-0.06285319946806704
-0.0476616593298816
-0.07719926485427699
-0.05953254235577635
-0.07372795585897246
-0.05535242955158534
-0.05382848821959355
-0.06867940933870154
-0.04718533477709556
-0.07435014820813141
-0.004438330238453003
-0.003278169495356904
-0.003003507300076956
-0.002750563182774769
-0.002146214109637462
-0.002294382767141976
-0.001684768684476426
-0.001985676264225971
-0.002114519294214915
-0.05479555814171783
-0.0369864065499402
-0.01605582757511032
-0.051784931225097
-0.02571060006632677
-0.02353972793685943
-0.009888774624942216
-0.01333907998698195
-0.01206613270606619
-0.006747099831484018
-0.007984221933731077
-0.004947628224071081
-0.006032738357454981
-0.007033646455599593
-0.0566693167980086
-0.07144131786405035
-0.06946916457880754
-0.1548548800274955
-0.1425435322756276
-0.1067526822508179
-0.1346359731331646
-0.09323345279151564
-0.08474148385902594
-0.1269974506648824
-0.1061211796556497
-0.1453659492931567
-0.1341670029911964
-0.1113337029128377
-0.119488081314589
-0.04996300874340449
-0.05609810472834853
-0.04427854171141368
-0.05203212479387877
-0.03892914179659452
-0.03575207873047122
-0.04831917552371197
-0.03143857348463155
-0.03304843588960722
-0.02526775824736405
-0.02822235698532643
-0.02924319814051499
-0.04382303758488063
-0.05173217270594028
-0.03896839071779953
-0.03271055778072775
-0.07626045308246161
-0.05282350350909772
-0.06385268512923224
-0.001083022391237335
-0.001179306444278199
-0.001223674550927905
-0.001025369132246285
-0.001053975468414424
-0.001148844437901083
-0.001186065576883327
-0.001394075916171254
-0.001440135642706584
-0.001536068262085029
-0.001197695995331211
-0.001236314807162773
-0.001252671108954221
-0.001292800957197561
-0.00120609117112636
-0.001320262728311846
-0.001242816261342095
-0.001142865940448402
-0.001084979264652783
-0.001178166947503225
-0.001115226431459624
-0.002695172401166839
-0.003024890526639673
-0.002640946664512282
-0.002793812628890776
-0.002936834955133022
-0.002770615011376856
-0.00257230921597964
-0.001821776745072701
-0.001727935055752756
-0.0017947260211228
-0.001642334421143858
-0.001696474568107363
-0.001858191276829999
-0.001760543141605216
-0.002361052489135638
-0.002649814700458748
-0.002441410712206796
-0.002345744113173353
-0.00244760214861306
-0.002550179986598434
-0.002266070388202797
-0.00161019071285077
-0.001473490363938398
-0.001465645580398758
-0.001516077059255322
-0.00151321995521771
-0.001564899048572925
-0.001559646555206692
-0.002015218114610521
-0.002252278234760021
-0.002077145626733662
-0.002024696028936531
-0.002100345832825229
-0.002155691293262804
-0.001945471830015914
-0.001480661278728292
-0.001399925453504008
-0.001438645590744167
-0.001468071972375163
-0.001432624770808855
-0.001520359224752552
-0.00142149536773217
-0.001695208990965852
-0.001880976183577452
-0.001738690594200923
-0.001716706691128259
-0.001771644959814972
-0.001795429582501215
-0.00164304821051357
-0.00121119246278234
-0.00130875123673806
-0.001340874228981981
-0.00126106245631327
-0.001293420935607898
-0.001413013785608165
-0.001509164818221666
-0.001610022535286784
-0.001349108985908749
-0.001393143679039777
-0.001339701126550339
-0.001380498140858373
-0.001227304182940756
-0.001266069084937751
-0.001034531780730158
-0.001131272629661781
-0.001051435807923451
-0.001210633673029566
-0.001246077056837388
-0.001123598968447768
-0.001153654539915595
-0.001267653431273653
-0.001122274613925057
-0.001156246472554288
-0.001129862643044717
-0.001162344861706935
-0.00104745975493199
-0.001065916711304685
-0.001296686841803227
-0.001425871329206896
-0.00147664803544775
-0.001383025845904871
-0.001427714910530299
-0.001221133148240121
-0.001256954424571369
-0.001374371068478875
-0.001276416370537213
-0.001312449337498418
-0.00118080471176135
-0.001213734283436886
-0.001135079856709922
-0.001163993448320325
-0.00358028428238459
-0.004076571531421385
-0.003513756786107426
-0.003739203455478467
-0.003942216324976171
-0.003693939442553709
-0.003408997155611538
-0.003081737960871094
-0.003507846028034298
-0.003202138010069295
-0.003066765307415163
-0.003210078704982754
-0.003358455734123219
-0.002947745467244127
-0.002575123776293945
-0.002916611399973019
-0.002661217183749504
-0.00259145770394491
-0.002698888843303732
-0.002775027940825596
-0.00247585647917934
-0.002115935646066433
-0.002377500132022525
-0.002175370015088517
-0.002147191511440605
-0.00222456704879624
-0.002255431454442634
-0.002044920401992886
-0.001644620966736336
-0.001643878478968871
-0.001513449968092692
-0.001675974546602688
-0.001568532155483613
-0.001730653891006341
-0.001591679233269402
-0.002569594664897435
-0.002875693508473814
-0.002665826724833073
-0.002839110155174645
-0.002802034556855446
-0.002632717195658005
-0.002601411055523451
-0.002232905667590262
-0.002495208373976299
-0.002326135972378822
-0.002225747769367377
-0.002412367246337936
-0.002304881700961332
-0.002157896928852497
-0.00193876268013064
-0.00215976732430404
-0.002009617037533801
-0.001949689331473719
-0.002076224774561122
-0.002012188941200457
-0.001880384689040518
-0.001654236318874647
-0.001833657456238807
-0.00170701610251303
-0.001676920503644321
-0.001756184557754956
-0.001723659187163204
-0.001611191403033365
-0.001388513153500972
-0.001204676193569265
-0.001251466234615051
-0.001491353747013524
-0.001590970163030171
-0.001294542532629007
-0.001356270232281367
-0.001703875799524955
-0.001614102603970385
-0.001685369955806985
-0.00154664723301962
-0.001588520897001939
-0.001733264162371905
-0.001657405615414915
-0.001573435347986609
-0.001510345258149577
-0.001480628867690619
-0.001554401249356281
-0.001512287656026716
-0.00160511782192689
-0.001516151914548279
-0.001406126942014881
-0.001293093758894158
-0.001318874165758445
-0.001606100538315032
-0.001681849064798081
-0.00146488482423111
-0.001494828044413323
-0.001240762841795975
-0.001135442643408461
-0.00116496531737788
-0.001360524696420746
-0.001392308391899715
-0.001264321782896117
-0.001302245961982061
-0.02956048212184153
-0.02133932953064922
-0.01900652443190292
-0.02391802005786153
-0.01985390933801999
-0.02847340112155694
-0.01826505434010227
-0.01480165749395333
-0.0145255643665651
-0.01287027381583997
-0.01374776089222124
-0.0175493611554903
-0.01678834102250441
-0.01241112596005833
-0.009095177718187844
-0.0110338476973267
-0.00857687508888335
-0.009007667938103864
-0.01025192498046261
-0.009732446482748082
-0.008078745976494772
-0.005209544143671955
-0.004903692234227666
-0.005026899086645936
-0.004375123630483878
-0.004701096359913923
-0.005452040220767018
-0.004819971324855391
-0.00351526602419401
-0.003427031155862147
-0.003311855955746324
-0.003041505927607578
-0.003208689148190258
-0.003636618440966978
-0.003319009862277075
-0.01377813567385594
-0.01937368722736097
-0.01306211138273709
-0.01287179924477022
-0.0168883695744508
-0.01552432964879225
-0.01218062746873703
-0.009846915967581991
-0.01315396654776342
-0.009592688070638906
-0.009536291078576151
-0.01094672913955087
-0.01081180333736042
-0.008752950666321419
-0.006708640170373929
-0.008042051792598206
-0.006598894671971357
-0.006710301980153969
-0.007264479571784093
-0.007384381581834605
-0.006135024625817033
-0.004613512835292592
-0.005394619406538645
-0.004560466534892399
-0.004701089554460708
-0.00490114415922742
-0.005056481607662503
-0.0043095824088439
-0.002992611323802506
-0.002874859617379575
-0.002634916270503241
-0.002969204053202187
-0.002759862584557619
-0.003125694402440586
-0.002848664339150827
-0.008468296765364522
-0.01019120856726276
-0.008109018502811056
-0.008601323071431188
-0.009576928937348709
-0.008965276529725407
-0.00768637869372471
-0.00650536526007563
-0.00776790762780926
-0.006589087875657037
-0.00640547070674918
-0.0072036334197457
-0.006978261765818428
-0.005994299820807542
-0.004837516281510004
-0.005690653236631713
-0.0048871691440887
-0.004861602411095519
-0.005251819693075947
-0.00521715735642739
-0.004523915039591406
-0.003571393938433472
-0.004127999975541141
-0.003600333838895124
-0.003637683488823536
-0.003812951368526565
-0.003851580651441258
-0.003383208213070111
-0.002476594113315164
-0.002418793537690444
-0.002220455040516333
-0.002491266635033222
-0.0023090971165812
-0.002601333451812255
-0.002376395322060859
-0.004824159838813374
-0.004513611114848715
-0.004706298070084559
-0.004112221027183558
-0.004354074231496783
-0.005014485514932595
-0.004534483080638857
-0.004014835895784771
-0.003842462584929288
-0.003484986894437025
-0.003985902389646954
-0.003668022563710011
-0.004219179282417524
-0.003799709710412724
-0.003235627964709499
-0.003156822670033076
-0.002863789030117836
-0.003256623812280119
-0.002994558129966386
-0.003421923621076973
-0.003085048302016888
-0.002567841690712214
-0.002543155882968905
-0.002315536596930522
-0.002609845505703062
-0.002405839522426649
-0.002722428063873393
-0.002465907685495966
-0.002020676128818233
-0.001999511877936482
-0.001841694404830262
-0.002052363890774419
-0.001903877023525196
-0.002127573166507214
-0.001952143569597257
-0.05375499576639404
-0.05928055618629046
-0.0639805991192948
-0.06587388477620265
-0.06334651841449869
-0.05918189039983316
-0.07590960968090235
-0.04040833754316805
-0.04353977558660386
-0.0473816408086935
-0.04770319434448634
-0.04735552584779443
-0.04376875527882929
-0.05187618045081564
-0.03369276415472996
-0.03910722120218385
-0.03577739173949835
-0.03620546349001669
-0.04238437716815071
-0.03960613588039889
-0.03858334691273718
-0.001107365436578993
-0.001200816473420745
-0.0012606939009114
-0.001091111254118761
-0.001125985901787798
-0.001237282701617033
-0.001280048645852609
-0.001441671533096796
-0.001288098606864309
-0.001375662370004005
-0.001313366114707101
-0.001409217120371093
-0.001348065599021731
-0.001396061327480067
-0.00385591200658054
-0.003528238837993157
-0.003408569360177259
-0.003299656964235862
-0.003750783602874068
-0.003497339584902922
-0.003621075867763686
-0.002905047458618574
-0.003107170557882991
-0.002704718173649332
-0.003015186215981221
-0.002840899572828386
-0.003182469858751438
-0.002762774309738644
-0.001922139911434512
-0.001756898669791083
-0.001826027737255648
-0.001723926424669123
-0.001891730206937999
-0.00178342721962471
-0.001854221551223917
-0.02171911563347101
-0.01530761065274322
-0.01541625650686456
-0.01993143664391402
-0.01376606406703441
-0.01757050857909275
-0.01460478510388585
-0.01098309657763477
-0.01238047922000143
-0.009061009501820469
-0.01039836635216231
-0.01035537552390341
-0.01369593939497936
-0.009525245747895931
-0.005901695760025614
-0.005096739172255353
-0.005223560173663867
-0.004869290803552251
-0.005684288935475936
-0.00527660111559064
-0.005406292845375396
-0.1150754350194463
-0.1242278781396754
-0.1230062167931794