/*--------------------------------*- C++ -*----------------------------------*\
  =========                 |
  \\      /  F ield         | OpenFOAM: The Open Source CFD Toolbox
   \\    /   O peration     | Website:  https://openfoam.org
    \\  /    A nd           | Version:  7
     \\/     M anipulation  |
\*---------------------------------------------------------------------------*/
FoamFile
{
    version     2.0;
    format      ascii;
    class       surfaceScalarField;
    location    "0";
    object      phi;
}
// * * * * * * * * * * * * * * * * * * * * * * * * * * * * * * * * * * * * * //

dimensions      [0 3 -1 0 0 0 0];

internalField   nonuniform List<scalar> 
36310
(
1.603207789015555e-05
1.431943992616101e-05
-1.884733706255301e-05
-1.537463813930692e-05
-1.84168110746181
1.340499545841186e-05
1.235399282390369e-05
-1.308720717051857e-05
-1.841656278119082
1.093878094817758e-05
1.082944954333566e-05
-1.13425961669176e-05
-1.841635997647991
8.603182321552528e-06
9.665602397760846e-06
-1.002933066060657e-05
-1.841619800077609
6.368391574683385e-06
8.800740784847535e-06
-9.064448336014476e-06
-1.841607297907949
4.206487453024545e-06
8.189032605521214e-06
-8.387934570779865e-06
-1.841598184550804
2.091701319266713e-06
7.798210837404011e-06
-7.958378490105118e-06
-1.841592233213298
7.607773908398807e-06
-7.749840343214815e-06
-1.841589294564656
2.082161497254048e-05
2.092857209998856e-05
-2.317248723320582e-05
-2.398186641913603e-05
-1.841745765232133
1.846506505267807e-05
1.776782232879329e-05
-1.999983161357251e-05
-1.841712379113964
1.615753528835931e-05
1.518946879170466e-05
-1.682693648593733e-05
-1.841683505378533
1.392373477482902e-05
1.310892002989912e-05
-1.841658871063544
1.17696116534279e-05
1.144818369114049e-05
-1.8416381615273
9.690317342677514e-06
1.01397451701064e-05
-1.841621061301318
7.675441726525477e-06
9.127737435082284e-06
-1.841607279290884
5.712209729840831e-06
8.367697767523145e-06
-1.84159656330641
3.787251365357405e-06
7.825713042118641e-06
-1.841588707755953
1.887418832630477e-06
7.477419586203062e-06
-1.841583557244959
7.307114942265089e-06
-1.84158100794793
1.74310658039956e-05
1.805943146793078e-05
-1.906852028391103e-05
-1.841709469026192
1.569925468158482e-05
1.557020767111836e-05
-1.841682767393877
1.392572214616129e-05
1.349748627219216e-05
-1.841659325396769
1.214225611496905e-05
1.179370908293416e-05
-1.841639054659751
1.036604432083822e-05
1.041133135273933e-05
-1.841621810874734
8.604732509552847e-06
9.306730358605519e-06
-1.841607426596063
6.860144074182731e-06
8.442169303875671e-06
-1.841595733805313
5.130820492792779e-06
7.786554285044768e-06
-1.841586578740255
3.413635566262119e-06
7.315520540643118e-06
-1.841579831216421
1.704732349219921e-06
7.011204637726423e-06
-1.841575390216171
6.861928405462307e-06
-1.841573187059779
1.476086528018438e-05
1.537974332505387e-05
-1.590773700413186e-05
-1.841678957905494
1.347583797589225e-05
1.34347193161493e-05
-1.841657503516608
1.209807340574625e-05
1.178610593669029e-05
-1.841638410707247
1.065937388395048e-05
1.040887072903453e-05
-1.841621696780294
9.181134340812137e-06
9.27526074615642e-06
-1.841607322914584
7.677314350728823e-06
8.358052518391752e-06
-1.841595218656138
6.156863162743677e-06
7.632532549061255e-06
-1.841585300188669
4.625540670356954e-06
7.077583248221109e-06
-1.84157748340256
3.087194641356808e-06
6.676192406297557e-06
-1.841571692897396
1.54460312378496e-06
6.415628071326188e-06
-1.841567867951852
6.287447013193092e-06
-1.84156596629574
1.267443008639856e-05
1.287359270584069e-05
-1.348462472948307e-05
-1.841653645035365
1.170736367509163e-05
1.13691288456826e-05
-1.841636272499343
1.062070757785075e-05
1.007447106402175e-05
-1.841620621896325
9.443345817915185e-06
8.97783443112148e-06
-1.84160676756477
8.197241321881868e-06
8.063929879050212e-06
-1.841594733540482
6.899046125989195e-06
7.316439539481556e-06
-1.841584510995752
5.56156677990655e-06
6.719707774931407e-06
-1.841576072155014
4.194967070919965e-06
6.259818100596931e-06
-1.84156938091968
2.807686220943569e-06
5.925229343026008e-06
-1.841564400674592
1.407102771778437e-06
5.707119895275873e-06
-1.841561099799094
5.599554679003704e-06
-1.8415594553598
1.106058556882004e-05
1.051562685071094e-05
-1.164044218590089e-05
-1.841632983056925
1.031857899466511e-05
9.369962872002628e-06
-1.841618751296714
9.444340989560942e-06
8.371513057811611e-06
-1.84160578880428
8.462996681022058e-06
7.515897747689221e-06
-1.841594198055169
7.395405384089661e-06
6.795380425682162e-06
-1.84158403880749
6.258929531354944e-06
6.200655476237038e-06
-1.841575340096362
5.068241249996871e-06
5.722170692451921e-06
-1.841568110403898
3.836052338019814e-06
5.351048980545471e-06
-1.841562345870848
2.573719347160766e-06
5.079695846595521e-06
-1.841558036650256
1.291717120988771e-06
4.902177933859034e-06
-1.84155517161107
4.814444320056367e-06
-1.841553741623038
9.831627114099468e-06
8.277611412275086e-06
-1.025488820709482e-05
-1.841616491951278
9.247537811063467e-06
7.428071911289841e-06
-1.84160463858732
8.526518948881803e-06
6.680068530189833e-06
-1.841593737142688
7.690094816232859e-06
6.033000793908519e-06
-1.841583901869292
6.757441505181501e-06
5.483461664238736e-06
-1.841575211584448
5.745656930150601e-06
5.026474134834396e-06
-1.841567717701878
4.6701374686282e-06
4.656462010225591e-06
-1.841561451456897
3.54497071981386e-06
4.367970135897584e-06
-1.841556430050325
2.383295174150039e-06
4.156171976024297e-06
-1.841552661625194
1.197604903405267e-06
4.017210137177499e-06
-1.841550149101018
3.94841150227496e-06
-1.841548892941524
8.920322615024587e-06
6.131804910273474e-06
-9.23861071188918e-06
-1.841603771238312
8.445151528155086e-06
5.531966921216368e-06
-1.841593671880382
7.832406724928775e-06
4.999627578414423e-06
-1.841584305832413
7.100601953612363e-06
4.535756176260489e-06
-1.841575790553598
6.267229118194582e-06
4.139207939017049e-06
-1.841568214154591
5.34874341594092e-06
3.807536778450193e-06
-1.841561640673667
4.360671047857418e-06
3.537663104539719e-06
-1.841556115132008
3.317773983274162e-06
3.326391541682814e-06
-1.841551668059502
2.234230234633637e-06
3.170792835649521e-06
-1.841548319322754
1.123804331819565e-06
3.068471883136268e-06
-1.841546081182585
3.017744760972882e-06
-1.841544960566473
8.276873957113645e-06
4.052392122398677e-06
-8.527054187665624e-06
-1.841594503524327
7.874108936715527e-06
3.669639304339203e-06
-1.841585636572489
7.334809994692732e-06
3.328043995472611e-06
-1.841577357803601
6.675223025429691e-06
3.028839279880298e-06
-1.84156978405278
5.911444112434171e-06
2.771862617847805e-06
-1.841563007384778
5.059248843582575e-06
2.556043789487402e-06
-1.84155709855338
4.134039171027822e-06
2.37981861215253e-06
-1.841552110560528
3.150862612617492e-06
2.241460187793089e-06
-1.841548082016566
2.124470148438879e-06
2.139330328643178e-06
-1.84154504010413
1.069389144814289e-06
2.072061407821826e-06
-1.841543003025997
2.038679368344956e-06
-1.841541981871764
7.866293449342714e-06
2.015745436538102e-06
-8.075717379008542e-06
-1.841588453824507
7.507678262186346e-06
1.829384792565876e-06
-1.841580370219361
7.013851871300318e-06
1.662504430870973e-06
-1.841572786415249
6.399563118489109e-06
1.515880250466323e-06
-1.841565817582427
5.679934376027565e-06
1.389597734239793e-06
-1.841559557138794
4.87021137262552e-06
1.283279757037471e-06
-1.841554079116534
3.985621514926464e-06
1.196283818253775e-06
-1.841549440791965
3.04130750379117e-06
1.127862709614434e-06
-1.841545685299465
2.052310498038687e-06
1.077288906412408e-06
-1.841542844025994
1.033580097460592e-06
1.043945565879343e-06
-1.841540938645828
1.027389352259434e-06
-1.841539982705783
7.666383642627626e-06
-7.856746056605335e-06
-1.841585467353021
7.328665013816383e-06
-1.841577764207173
6.856567517767838e-06
-1.841570519066529
6.264099352897936e-06
-1.841563845930565
5.565886660157851e-06
-1.841557838537952
4.776890466410785e-06
-1.841552572222327
3.912225910815077e-06
-1.841548106098607
2.987056776914423e-06
-1.841544485314337
2.016542956221462e-06
-1.841541743162892
1.015820181854267e-06
-1.841539902910988
-1.841538979240632
2.475438670826752e-05
-2.541879359040459e-05
-2.892886494809348e-05
-1.841783832677656
2.100598804644324e-05
-2.053158929982139e-05
-1.841739417445417
1.763862564051937e-05
-1.685471516234899e-05
-1.841702669265828
1.459278308927082e-05
-1.409141416409569e-05
-1.841672594197071
1.180727290099293e-05
-1.202345007404606e-05
-1.841648325616184
9.225009214349494e-06
-1.049144129348288e-05
-1.841629139272328
6.795134653685655e-06
-9.380446975020839e-06
-1.841614452097837
4.473138922378449e-06
-8.609365244090264e-06
-1.841603814112361
2.219875667060842e-06
-8.123306599524823e-06
-1.841596898561683
-7.88836478328063e-06
-1.841593493044101
2.186864260462919e-05
-2.509315996818799e-05
-2.220579676898761e-05
-1.841746597069211
-1.835141500889186e-05
-1.841711020332546
2.852206891673074e-05
-2.735672865082436e-05
-3.403957640417688e-05
-1.795780372219781
2.378104055489516e-05
-2.168245052318408e-05
-1.795727726374068
1.967787872346932e-05
-1.750960171937033e-05
-1.795684884709935
1.608407807036286e-05
-1.443395247143901e-05
-1.795650311782417
1.288715549208058e-05
-1.217023807999406e-05
-1.795622739587273
9.991564140300075e-06
-1.051646193417351e-05
-1.795601150742726
7.31734568657065e-06
-9.330666961399062e-06
-1.795584751237627
-8.51482899955619e-06
4.797575541083144e-06
-1.795572942581693
2.884070846721978e-05
3.923156680954159e-05
-4.890120871324283e-05
-2.961705647183357e-05
-1.795872916410531
3.355058585414202e-05
-4.091954422564288e-05
-1.795824993531603
2.243017702596717e-05
3.15704910462955e-05
-2.262821749012301e-05
-1.795797324207776
2.747899832026779e-05
-1.795761598918389
1.78132555826204e-05
2.536305677179855e-05
-1.767312236804369e-05
-1.795737850687509
2.240350372714662e-05
-1.795710873074619
1.447363728586329e-05
2.023268720971072e-05
-1.415222520240819e-05
-1.795691191384229
1.809017046107823e-05
-1.795670512343506
1.205597894953017e-05
1.589618662519418e-05
-1.16449513226702e-05
-1.795654838891721
1.435272365354035e-05
-1.795638699646567
1.031430475266558e-05
1.213658660544592e-05
-9.863768497558267e-06
-1.795626911086863
1.104240972438219e-05
-1.795614027800283
9.079613881772564e-06
8.786566488105526e-06
-8.615234316077637e-06
-1.795606013708166
8.040337228010251e-06
-1.795595428343937
8.237554007103208e-06
5.715091526039575e-06
-7.771068399231561e-06
-1.795591137440667
5.250503555215507e-06
-1.795582112775754
7.713303730838561e-06
2.816276207659551e-06
-7.248708118746201e-06
-1.795581583530868
8.003736049340373e-06
2.593370872716605e-06
-1.795573527227702
2.375252307457385e-06
-1.795565297687503
7.461772938353174e-06
-6.998994268841208e-06
-1.795576912585268
7.757606752534228e-06
-1.795569319854152
-1.79556154225245
3.784737678072389e-05
-3.957625583214352e-05
-6.161574366882152e-05
-1.795968890258095
3.512022064517113e-05
-4.998014693313729e-05
-1.795903906420889
-2.847915273918038e-05
-2.717260780032816e-05
-1.8417884188068
-3.191858854734169e-05
-3.353217132940036e-05
-1.841836988735757
-4.04575896062599e-05
-1.795844610661916
5.772700144633434e-05
-3.823940995471166e-05
-7.634240076780387e-05
-1.796037947579137
2.092961882830138e-05
7.106842248588137e-05
-9.889476118073423e-05
-1.218385156798746e-05
-1.796104513021405
2.627949408524268e-05
6.569612043035554e-05
-8.934410629307097e-05
-1.796067304632238
2.876542442495477e-05
5.885051989304937e-05
-7.736587170941272e-05
-1.796022085557212
2.939461249803173e-05
5.185847183497575e-05
-6.556521679231069e-05
-1.795973671412746
4.542504100868425e-05
-1.795922959245111
1.486740675475722e-05
5.281943421551789e-05
-9.993433828014986e-06
-1.795961050298708
1.855478282664093e-05
4.937071952992568e-05
-1.795935801803303
2.087545889303392e-05
4.508900597185994e-05
-1.795904783113173
2.213500170818668e-05
4.051303702211898e-05
-1.795870315369065
3.596167159412278e-05
-1.795833970736368
1.097580878450784e-05
3.987566449167008e-05
-7.59805493528928e-06
-1.795856352021005
1.372321241872794e-05
3.757388529991011e-05
-1.795838566269758
1.571184490291534e-05
3.475270208425335e-05
-1.795816577677271
1.699915079563449e-05
3.165883513335283e-05
-1.795791695014408
2.84832582475943e-05
-1.795765094485908
8.378435544892932e-06
3.026783262099467e-05
-5.81385546730585e-06
-1.795778822746882
1.053973338781066e-05
2.871079723121284e-05
-1.795765971750541
1.222066415459069e-05
2.680324320235533e-05
-1.79574996936983
1.341576693708873e-05
2.467786939842852e-05
-1.795731637117377
2.24546207975544e-05
-1.795711790285026
6.621445976560173e-06
2.286318233770946e-05
-4.578260373631133e-06
-1.795721160114865
8.387211636471519e-06
2.180427085740847e-05
-1.795711629946404
9.822350258820279e-06
2.050098019168444e-05
-1.795699678529558
1.090700917084078e-05
1.903220991386098e-05
-1.795685853609626
1.747466196275934e-05
-1.795670723893501
5.426549295008122e-06
1.693332007604287e-05
-3.735984528577393e-06
-1.795678475822534
6.916552620538766e-06
1.621709110685813e-05
-1.795671195887451
8.164960767175617e-06
1.533064023107045e-05
-1.795662008105758
9.149441213155566e-06
1.432285334013367e-05
-1.795651293763925
1.324303135460083e-05
-1.795639459872326
4.618342338658878e-06
1.198622408766246e-05
-3.167755956519319e-06
-1.795647450772606
5.916263888450854e-06
1.151513456802746e-05
-1.795641688009106
7.027754080626871e-06
1.092922538958874e-05
-1.795634375190921
7.930948698849775e-06
1.025869414548679e-05
-1.795625789512819
9.534662112558942e-06
-1.795616233118608
4.086755603752866e-06
7.676395150301851e-06
-2.795197261207256e-06
-1.795625840926583
5.255112347760836e-06
7.390529034434917e-06
-1.795621073070215
6.271113334827669e-06
7.033692774882636e-06
-1.795614995977097
7.113936606695172e-06
6.623413384384781e-06
-1.795607822326851
6.178004596790751e-06
-1.795599787860525
3.764178615182187e-06
3.748652146678329e-06
-2.56969937549383e-06
-1.795612171282997
4.852451247467534e-06
3.613575672122965e-06
-1.795608005598361
5.808145942864925e-06
3.444591698642101e-06
-1.795602679145347
6.611328517139953e-06
3.249760517576302e-06
-1.795596367121739
3.037571367905828e-06
-1.79558926616231
3.611755660834463e-06
-2.463318018590407e-06
-1.795605547579477
4.661766375744351e-06
-1.795601665927911
5.588294576694427e-06
-1.795596694308628
6.371890082605641e-06
-1.795590790679547
-1.795584133547671
5.629272671084992e-05
1.058095399020857e-05
-7.546726845249973e-05
-1.842006371770552
4.254465328301648e-05
7.7739497696531e-06
-1.841902525325487
3.232221940998875e-05
5.930961719376642e-06
-1.84182535191745
2.443465942599998e-05
4.696068926769486e-06
-1.841767789488351
1.810868591822048e-05
3.859177226393889e-06
-1.841725071469263
1.282377412350944e-05
3.293398429370343e-06
-1.84169395473242
8.214950688044934e-06
2.921027544045221e-06
-1.841672243413441
4.012188618630172e-06
2.69487535502601e-06
-1.841658492207841
2.587948252385854e-06
-1.841651823862527
9.570165171055283e-05
2.987956658938803e-05
-3.939934786162391e-05
-2.196605163986044e-05
-2.813557067143924e-05
-3.770892233856404e-05
-2.743236818589234e-05
-1.842298462886291
7.076442776731339e-05
2.058395698881264e-05
-1.496505279916176e-05
-1.842118155895044
5.32816418266597e-05
1.475122014216827e-05
-1.841986248638292
4.056767247032253e-05
1.09690998568213e-05
-1.841888346919646
3.099754486733705e-05
8.449887205697675e-06
-1.841815085481791
2.353692228788901e-05
6.741357965346718e-06
-1.841760146132636
1.750177268610976e-05
5.572659070196551e-06
-1.841719204270014
1.242433035906365e-05
4.777054613214241e-06
-1.841689285966602
7.972356299515524e-06
4.250775980236314e-06
-1.84166836150235
3.897487474839148e-06
3.930050546330207e-06
-1.841655087095944
3.778103845635766e-06
-1.8416486438269
8.573021335820126e-05
3.402965171468525e-05
-3.01819580816598e-05
-3.053322618509768e-05
-3.990117323524056e-05
-1.627034782161751e-05
-1.842237588389892
6.45076271492502e-05
2.429518347276094e-05
-1.842077916948391
4.922454594213622e-05
1.782968109272604e-05
-1.841958383698199
3.78653027985243e-05
1.347853430721019e-05
-1.841868490931688
2.916479857557751e-05
1.051195327893828e-05
-1.841800575848034
2.228325421379717e-05
8.467714388286508e-06
-1.841749264415974
1.664832453662487e-05
7.053002661765976e-06
-1.841710801376308
1.18597891276729e-05
6.081493837563472e-06
-1.841682566876671
7.628312814109612e-06
5.434722610278191e-06
-1.841662753354626
3.734493625161187e-06
5.038817368371675e-06
-1.84165015438284
4.85076438248249e-06
-1.8416440305813
7.528800954669426e-05
3.692986719391009e-05
-0.0001005906330785428
-1.842171225064419
5.757205634773492e-05
2.66886823257844e-05
-1.84203100473097
4.455705303218308e-05
1.990244039321953e-05
-1.84192501920252
3.468303921580995e-05
1.527524042885173e-05
-1.841844339711812
2.697193517790485e-05
1.206991786054444e-05
-1.841782722780557
2.076568717741459e-05
9.828948289135789e-06
-1.841735750604329
1.560618305240493e-05
8.259193030022473e-06
-1.841700285459872
1.116599500049433e-05
7.170730151571053e-06
-1.841674104460076
7.203623644900768e-06
6.440741771482813e-06
-1.841655654229655
3.532768424718733e-06
5.9915791156904e-06
-1.841643887694339
5.777572895538094e-06
-1.84163815862184
6.43022487369054e-05
3.713956399337255e-05
-8.293461899858988e-05
-1.842098958500145
5.029242693320925e-05
2.756131740889696e-05
-1.841979895796648
3.959343674781896e-05
2.096733358370149e-05
-1.841888194312155
3.124467659782718e-05
1.636430824524277e-05
-1.841817320576283
2.456803796536015e-05
1.311570810107628e-05
-1.841762506876812
1.908180432533833e-05
1.080846364336514e-05
-1.841720287099627
1.443858447815284e-05
9.170927277616695e-06
-1.841688143704545
1.038293348397157e-05
8.02336342104039e-06
-1.841664259416099
6.721805041808393e-06
7.247442794814767e-06
-1.841647344885942
3.30320307310155e-06
6.767258867196891e-06
-1.841636520803711
6.537685323440193e-06
-1.841631239972599
5.402762453494374e-05
3.579475545019111e-05
-6.78469075024259e-05
-1.842026561047689
4.321903356366463e-05
2.723397249616988e-05
-1.841927675302351
3.465575268629323e-05
2.115900766032967e-05
-1.84184993522517
2.775988996642396e-05
1.681123827628356e-05
-1.841788826523612
2.209304742040624e-05
1.367889870191475e-05
-1.841740903610471
1.732521237580794e-05
1.141567407379811e-05
-1.841703569867867
1.320758804674483e-05
9.786425909305122e-06
-1.841674885087755
9.550600255106023e-06
8.631564810596702e-06
-1.841653416833836
6.206709769049717e-06
7.843835952175369e-06
-1.841638130643609
3.056938588934518e-06
7.353311133468411e-06
-1.841628311502845
7.11792451245908e-06
-1.841623510241895
4.484443772105888e-05
3.337569785344379e-05
-5.477801340440815e-05
-1.841957634193527
3.670239399911515e-05
2.603484241988887e-05
-1.841876842595056
2.999188272742415e-05
2.066387902688078e-05
-1.841811980232201
2.439981652378747e-05
1.671961076255008e-05
-1.841760092156228
1.966527712922756e-05
1.381582844531094e-05
-1.841718805040024
1.557751121478314e-05
1.16795144009531e-05
-1.841686254970682
1.196876382767805e-05
1.011858773905835e-05
-1.841661003121999
8.705600287920095e-06
8.998876111274563e-06
-1.841641959658624
5.680521801484571e-06
8.228102793302465e-06
-1.841628321707404
2.804438402841386e-06
7.745020212166338e-06
-1.841619525965783
7.512308698804411e-06
-1.841615214853853
3.696987214373525e-05
3.038092080501271e-05
-4.397441334028088e-05
-1.841894391390845
3.094093963855593e-05
2.427598112603295e-05
-1.841829125570861
2.57608500586558e-05
1.967295400334561e-05
-1.841775644512076
2.128491737938648e-05
1.620479129524844e-05
-1.84173211203916
1.737364433326208e-05
1.359540161230547e-05
-1.8416969653995
1.390309880591726e-05
1.164034469580922e-05
-1.841668919890651
1.076764460117401e-05
1.019020331199815e-05
-1.841646947530144
7.878788596077777e-06
9.137322933838666e-06
-1.841630247437735
5.16231714994735e-06
8.405809026333817e-06
-1.841618216623303
2.554807815388448e-06
7.944318185184764e-06
-1.841610425081882
7.72113755687088e-06
-1.841606596742707
3.042107843034994e-05
-3.530108249184356e-05
-1.841837893084701
2.600325365875727e-05
-1.841785548872998
2.204053776744543e-05
-1.841741816101951
1.848581442728861e-05
-1.84170561943359
1.52764467885976e-05
-1.84167597802638
1.234752622430629e-05
-1.841652042762945
9.638215528540502e-06
-1.841633106656097
7.09409065004607e-06
-1.841618601686442
4.667274025873974e-06
-1.841608089967373
2.315401041273675e-06
-1.84160125370645
-1.84159788638177
-1.097854008222347e-05
0.4606389196385337
-5.798612560096609e-05
1.321796785804297e-05
-0.4606225722883366
-1.805320481241622e-05
-6.158921824034791e-05
5.048550716335504e-05
1.830906738953708e-05
0.4606512649795213
-0.4606404171310317
5.338921920547478e-05
-3.876063908697658e-05
-3.887262919702317e-05
-3.110684414039944e-05
-2.717444618025033e-05
-7.864273317309545e-06
-1.985495038742124e-05
-2.180309765204003e-05
-3.38986250245088e-06
-1.842359198972424
5.120468385683271e-05
-2.693365410058601e-05
-2.913188682812651e-05
-3.724159848450537e-05
-1.4374797570188e-05
-1.842253907351477
4.797788622066609e-05
-8.591998303495604e-05
-1.84215229795258
4.344706818726578e-05
-6.691101048441387e-05
-1.842057897734669
3.846640402227997e-05
-5.202233720765063e-05
-1.841973489607128
-4.056843147357773e-05
-1.84189993365726
-0.0001269014657249989
0.4492057216625724
1.967985786464335e-05
7.139795982509668e-05
5.643205384816413e-05
5.497216973122249e-05
-1.634180890087988e-06
-1.16211300389274e-05
-2.949604202363842e-05
-2.491410824734253e-05
-1.959823960659413e-05
-0.4491940385372892
3.06466056192622e-05
-2.094081600968745e-05
0.4492009583608726
6.680850948710595e-05
-1.775935191749428e-05
-2.313065830429617e-05
-2.011816923001147e-05
-0.449188294481484
-2.642037902129968e-06
-1.352516078556576e-05
-9.709210214106645e-06
-2.293590138938151e-06
-1.288445483674239e-05
3.052269095603032e-05
0.4491788448275749
5.817487509341663e-05
-2.576314604456342e-05
-1.813728168534312e-05
-1.141972916900852e-05
-0.4491686911756787
-2.976704289623129e-05
-5.476913973352561e-05
4.57657969121784e-05
2.81639658230387e-05
0.4491353524485468
-0.4491247460286658
6.384006555938818e-05
-2.590104926364356e-05
-3.956571155749877e-05
-3.200430135733012e-05
-1.085832993671931e-05
-1.575013148275017e-05
-2.314009394002725e-05
-2.649439283772259e-05
-7.315498446291979e-06
-1.796251646344473
5.57243166596777e-05
-8.120424602918249e-05
-1.796125573774731
4.778527124953946e-05
-6.081013998467038e-05
-1.796015651908071
-4.586566296167691e-05
-1.795922399525686
-7.911321570655556e-05
-2.242875893049718e-05
0.1124247199513508
6.980360317877157e-05
2.380510725074248e-05
-0.112416786687147
-7.8190490934592e-06
3.182851789595987e-05
0.1123281902638258
-3.517204057593802e-05
8.364381450720719e-06
-0.1123253920734974
-6.003339719249145e-05
-2.588629030586363e-05
0.1123940269308932
2.598561222288087e-05
5.387256552341574e-05
-0.1123879654211315
1.016831600445515e-05
0.1123082278861443
-9.449366721836441e-06
-2.37857117361472e-05
-0.1123061019394491
-4.299459324324801e-05
-2.497135169897334e-05
0.1123625134511403
2.430894816967974e-05
3.928354132800978e-05
-0.1123581399956901
1.510001022012597e-05
0.1123053394831874
-2.188990892911704e-05
-0.1123012657228912
-2.977142050629047e-05
-2.18123571419791e-05
0.1123340109309279
2.090670906830671e-05
2.757364152363959e-05
-0.1123309075038872
3.173445534470624e-05
0.4491452159592377
-5.405169366304955e-05
-3.52725963569115e-05
-0.4491343737447763
4.674762022136171e-05
5.097721464199441e-05
-7.811233565008809e-05
-5.619410742456167e-05
-1.796090520683073
-6.102899215703611e-05
-1.796001740673503
-2.002520880533612e-05
-1.768463071982742e-05
-0.1123072618266185
1.655695105469285e-05
1.830645929068453e-05
0.112310108255798
3.360597279269438e-05
0.4491250207472177
-4.515825749969904e-05
-0.4491076350552631
-4.493744555489413e-05
-4.696116146929688e-05
0.4491507470204859
4.135827737883336e-05
3.855352624286415e-05
-0.4491387602171102
7.379747157871287e-05
-3.34135220657894e-05
-9.251123996967259e-06
-1.865624394598031e-05
-2.704295930522349e-05
-2.340797349614787e-05
-3.132778663444968e-05
-3.316458595886695e-05
-1.009946985794374e-05
-1.796268959285413
7.025439786174864e-05
-3.008815612912108e-05
-2.865265415924467e-05
-3.148355518187151e-05
-1.024038553559814e-05
1.729931114163863e-06
-5.39154344113002e-05
3.816589869531928e-06
-2.945777117721593e-05
-1.796247658433515
-1.796122542676663
3.170676699186168e-05
-4.92145014889811e-05
2.000147870773183e-05
-2.770571476426453e-05
-3.895542825110843e-05
-2.612682810548828e-05
-3.458103776149413e-05
-1.617630913028356e-05
1.756759607879355e-05
-1.796310679798147
3.979597128370585e-05
-3.684932426256671e-05
-2.518338920309837e-05
-3.949858741306156e-05
-2.366061605482694e-05
-1.796248104615323
4.208151720790113e-05
-2.69531788741062e-05
-2.088628558394312e-05
-4.660633409819814e-05
-8.126235368721701e-06
-1.796178650097318
-1.796111974575801
-0.0005181321728563448
0.0001971852659670148
0.0002492500731637037
-1.961848219766971e-06
-1.140816787526011e-05
0.4491450623536117
-6.344574369193105e-05
1.082558957344549e-05
-0.449130248533308
-1.416425679141853e-05
-2.154766244196649e-05
0.4491641991671109
2.229829582088368e-05
5.352328482650793e-05
-1.70296037729431e-05
-2.281272189261219e-05
-1.080246736303442e-05
-0.4491536640354993
-5.7716705764796e-05
-2.427414290226574e-05
4.767518706237218e-05
2.596727175005603e-05
0.449134395475351
-0.4491260470854854
-4.530029806204539e-05
-2.09233093643607e-05
-0.4491312907550107
2.56137320189097e-05
6.675532079469878e-05
0.4491051453096269
-3.795043204637971e-05
-3.489356722419235e-05
3.143733658092507e-05
-3.130968784967325e-05
-1.796182436801935
0.0002386428166217536
-0.0006122013983590191
0.0002869012095419177
-1.006795958147233e-05
-9.741228883352034e-05
-2.876790255157838e-05
0.1124720821080843
8.462111369255666e-05
3.077099095435914e-05
-0.112461294021351
-7.557628269336706e-05
-3.426699358980279e-05
0.1124365731946249
3.466393577010743e-05
6.672559444781535e-05
-0.1124281194485715
-5.505142347604788e-05
-3.402063096241537e-05
0.1123990165410991
3.332582301450289e-05
4.952153086543425e-05
-0.1123927918405325
-3.852555507841432e-05
-3.033200974123044e-05
0.1123641550463965
2.91420348543709e-05
3.532146641283114e-05
-0.1123597609828426
-1.972280848343311e-05
0.1123154248274734
1.849867138226093e-05
-2.144357763564533e-05
-0.1123127823213661
-2.231971883682554e-06
-8.618556586591894e-06
-0.1123926071551118
7.623592882302456e-06
2.416617290173916e-06
-4.669982239691084e-05
-1.836579468594827e-05
0.1123673247056924
1.884635419597249e-05
4.168740911054822e-05
-0.1123627928519149
-3.634805407564069e-05
-1.936514843221715e-05
0.1123463257422124
1.927931582024205e-05
3.287206181041975e-05
-0.1123427639173222
-2.727591600581998e-05
-1.844983416014839e-05
0.112325620805251
1.803070056676869e-05
2.503133913662891e-05
-0.1123229570947792
-1.590716381716373e-05
0.4491793819183804
4.906280275562835e-05
1.082800863708155e-06
-1.744064955092051e-05
-1.815167007502422e-05
-0.4491668655102181
-0.0001605800933801096
5.204404908573657e-05
-6.431994944301744e-06
5.88680655131818e-05
-5.971554831217073e-06
2.137518652491066e-05
0.1123076318517757
-2.482937532253549e-05
6.282360944430979e-06
-0.112304488469098
-7.027043215680462e-06
0.1123007759881141
1.093100003039051e-05
-2.206660223020446e-05
-0.1122967775995143
-3.033926995892886e-05
0.4491766314499941
3.049991719851753e-05
-0.4491665286250708
-1.642120506521044e-05
-2.106912523205245e-05
-1.70292925735227e-05
-1.346055495955734e-05
-3.040158433341808e-05
0.4491369614557001
3.114417095185282e-05
-5.61765985231264e-05
-0.4491268277415479
-4.911416748498694e-05
-3.432152707938993e-05
2.714457556175224e-05
4.743295401603416e-05
0.4491322309476367
-0.4491233727826582
-0.0003127609902594974
-0.0003567203895489306
0.0002943630686807892
0.02867860625808813
0.0003194723769335717
-0.02862296032389108
0.0284569494115803
0.000184793092396926
0.0001464374849277376
-0.000155663872200026
-0.02843130536681136
-0.0002012107498959845
-0.0002512575062292911
-0.0001200485223310701
0.1130345540701946
0.0003972893390608518
0.0002397789711790912
-0.112953481120589
-0.0001196333831277284
-0.0001167654054407309
-0.0001104364427205705
-5.463281078632877e-05
0.0001351888634999479
0.1125658455747023
-0.0001559944002539179
5.653287155702811e-05
-0.112546940098713
-2.650945883298199e-05
-8.996967872950845e-05
0.1124461785220933
2.802056717949355e-05
-0.112436833167429
-0.0001193974056244836
-0.0002203919114981855
-0.02833916792140855
0.0001978497879259111
0.0001189581310855668
0.02836214931951658
-0.0001142332817571433
-0.0001002741084108459
-0.02825243761542275
0.0001047333611370495
9.368278033135925e-05
0.0282685288641183
-0.0001952412100907587
-0.0002397901067750117
0.1127835228634988
0.0002142468048175311
0.0001783006472400867
-0.1127410389986837
-9.449881584772148e-05
-0.0001508075812989189
0.1125929965679314
0.0001339575959281465
9.006121918616636e-05
-0.1125717089858933
-3.005928753988071e-05
0.1124103847421001
3.003188184784288e-05
-6.702223030685357e-05
-0.1124033685033456
-0.0001483185301473296
-0.0003612624328863346
0.1128987079227319
0.0002999507628736651
0.0001535386211623403
-0.1128426163437304
-0.0002265877983956147
-0.0001489767913640319
0.1127404857682072
0.0001433765281426376
0.0001957539827024529
-0.1127040516892838
-0.0001314645268513301
-0.0001206454154232401
0.1126008322463317
0.0001122986919464209
0.0001180447263585697
-0.1125790657223611
-7.445134241121362e-05
-8.821251533612299e-05
0.112493647672613
8.091036156726683e-05
6.912589943581966e-05
-0.1124810200758704
-2.845247545431594e-05
0.1123742764890103
2.757205671913343e-05
-4.70801467735221e-05
-0.1123693105168364
-3.45094755911335e-05
0.1125017686990866
-0.0001126389096081863
3.678523021380078e-05
-0.1124888178330963
-4.047647872683894e-05
0.1124597061603474
4.076497040198467e-05
-8.584769055470606e-05
-0.1124497232442572
-3.94536459523598e-05
0.112415944481743
3.846381529078592e-05
-6.127501195972763e-05
-0.1124087310626098
-3.451306195833367e-05
0.1123760459597669
3.300468696303364e-05
-4.201669978250549e-05