/*--------------------------------*- C++ -*----------------------------------*\
  =========                 |
  \\      /  F ield         | OpenFOAM: The Open Source CFD Toolbox
   \\    /   O peration     | Website:  https://openfoam.org
    \\  /    A nd           | Version:  7
     \\/     M anipulation  |
\*---------------------------------------------------------------------------*/
FoamFile
{
    version     2.0;
    format      ascii;
    class       volScalarField;
    location    "0";
    object      Phi;
}
// * * * * * * * * * * * * * * * * * * * * * * * * * * * * * * * * * * * * * //

dimensions      [0 2 -1 0 0 0 0];

internalField   nonuniform List<scalar> 
12684
(
29.65337885235142
29.65336694523788
29.65335698927308
29.65334886497954
29.65334247534812
29.65333774550822
29.65333462132656
29.65333306780834
29.65340862273398
29.65339315840456
29.65337944429789
29.65336744400643
29.65335710277106
29.65334836141492
29.65334116436225
29.65333546376894
29.65333122127895
29.65332840846627
29.65332700666979
29.6533919488716
29.65337900272193
29.65336734279803
29.65335700008662
29.65334798196537
29.65334028304651
29.65333389226375
29.65332879719654
29.65332498650758
29.65332245118144
29.65332118506723
29.65337756086302
29.65336659788615
29.65335658930623
29.65334760399972
29.65333968722337
29.65333286834375
29.65332716635962
29.65332259362307
29.65331915820825
29.65331686533159
29.65331571814625
29.65336530777081
29.65335589440098
29.65334719927677
29.65333931121809
29.65333229759255
29.65332620945576
29.65332108549578
29.65331695488916
29.65331383926375
29.65331175397956
29.65331070891649
29.65335505133706
29.65334683657856
29.65333917291246
29.6533321585478
29.65332587303303
29.65332038042426
29.65331573188244
29.65331196767144
29.653309118614
29.65330720709832
29.65330624773282
29.65334667350248
29.65333937149826
29.65333250330041
29.65332617060729
29.65332045913105
29.6533154403416
29.65331117301018
29.65330770447308
29.65330507160358
29.65330330151699
29.65330241204915
29.65334007870218
29.65333345352888
29.65332718126779
29.65332136409567
29.65331609043906
29.65331143573308
29.65330746319155
29.65330422449688
29.65330176036766
29.65330010099243
29.65329926633669
29.65333519347298
29.65332904619259
29.65332319804802
29.65331775044377
29.65331279271845
29.65330840225598
29.65330464472369
29.65330157434978
29.65329923418656
29.65329765633076
29.65329686208949
29.65333196491882
29.65332612257886
29.65332054658439
29.65331533735754
29.65331058436637
29.65330636584747
29.65330274871435
29.65329978857105
29.65329752977503
29.6532960055126
29.65329523786691
29.65333035896779
29.65332466510196
29.65331922206163
29.65331412965075
29.65330947726927
29.65330534345425
29.65330179563108
29.65329888999911
29.65329667149541
29.65329517379773
29.65329441934243
29.65342583306933
29.65340611116783
29.65338937562791
29.65337532287672
29.65336369675833
29.65335428986508
29.65334694026982
29.65334152656364
29.65333796279911
29.65333619421686
29.65340909233634
29.65339285037366
29.65344447576542
29.653421169482
29.65340173724261
29.65338565782636
29.65337251501813
29.65336198451632
29.65335382009367
29.65334784085937
29.65348517046127
29.6534642858103
29.65345311310885
29.65343687056686
29.65342731586341
29.65341441660937
29.6534065909086
29.65339610999884
29.65339005814081
29.65338132794916
29.65337706886461
29.65336959988531
29.65336715167635
29.65336057678353
29.65335997189533
29.65335400677002
29.65335530191353
29.65334971641772
29.65334392060885
29.65335300064528
29.65334759729247
29.65334197971517
29.65352512918351
29.65349772246239
29.65342772916602
29.65344888079139
29.65347229057848
29.65355378785153
29.65358291909342
29.65356776316254
29.65354873318407
29.65352790304914
29.65350661729526
29.65352484684061
29.65351408078744
29.65350064456539
29.65348552785378
29.65346949905944
29.65348168641254
29.65347373841308
29.65346380091443
29.65345242337157
29.65344011364168
29.65344910274756
29.65344303560458
29.65343540338385
29.65342655393739
29.65341683907168
29.65342436994548
29.65341957510529
29.65341350160721
29.65340638887082
29.65339849069176
29.65340568771703
29.65340175814685
29.65339674960875
29.65339083705095
29.65338421159352
29.65339185096633
29.65338850664947
29.65338422245837
29.65337913339508
29.6533733902943
29.65338205664403
29.65337909726928
29.6533752918431
29.65337075069206
29.65336559922072
29.65337578401908
29.65337305823457
29.65336954439056
29.65336533849177
29.65336055097803
29.65337272087701
29.65337010546774
29.65336672970588
29.65336268300981
29.65335806888251
29.65352341322151
29.65348160429981
29.65345000614883
29.65342600025643
29.65340785249876
29.65339440307687
29.6533848787884
29.65337877749877
29.65337579762394
29.65363861862508
29.65356754047526
29.65351498334058
29.6534754107684
29.65344528093208
29.65342225888284
29.65340477787954
29.65339177921549
29.65338255159612
29.65337663048269
29.65337373579704
29.65361481347588
29.65355114116887
29.65350323099486
29.65346667165039
29.65343854887908
29.65341688802073
29.65340033812369
29.65338797332033
29.65337916498888
29.65337349939847
29.65337072576925
29.65358770194017
29.6535317851161
29.65348902602916
29.65345593325767
29.65343017397126
29.65341014176476
29.65339471897322
29.65338312817414
29.65337483512746
29.65336948495606
29.65336686114928
29.65355827979323
29.65351052215491
29.65347316968929
29.65344376342326
29.65342055782791
29.65340231100926
29.6533881388469
29.65337741522979
29.65336970376726
29.65336471144522
29.65336225813791
29.65352869058016
29.65348856396247
29.6534564649455
29.65343072592493
29.65341010850003
29.65339369987064
29.6533808323389
29.6533710229897
29.65336392970569
29.65335931994777
29.65335704954246
29.65350017278049
29.65346686656681
29.65343960749434
29.65341733235597
29.65339921047633
29.65338460496547
29.65337303546112
29.65336414619356
29.65335768049573
29.65335346154056
29.65335137866854
29.65347358225199
29.65344612452202
29.6534231445138
29.65340401178696
29.65338820336027
29.65337529985784
29.65336497394891
29.65335697675929
29.65335112513912
29.65334729105742
29.65334539358743
29.65344937767222
29.65342678376783
29.65340747100649
29.65339110137631
29.65337737185897
29.65336602595685
29.65335685538034
29.65334969702399
29.65334442820335
29.65334096179294
29.65333924213169
29.9789449843755
29.9789763093691
29.65366241116368
29.65361987579674
29.6535790808563
29.65354085671618
29.65350624229373
29.65347559598283
29.97913584724584
29.97912536085235
29.97907527623342
29.97897674694169
29.65364209644068
29.65358993070663
29.65354439660736
29.65350534975286
30.14309565714109
30.14207229841929
30.14276871558702
30.1418524806269
30.14243436758153
30.14181924521815
30.14213250519455
29.97899842305952
29.65357547735388
29.65353856281914
30.14187956755255
29.97894656060785
29.9790108339117
29.65364873378134
29.65363930541063
29.65358843153632
29.6536637291265
29.65364076905385
29.65361195128154
29.65358147845874
29.97899652451687
29.97904322174476
29.97897577200592
29.97890786150914
29.65361616963857
30.14359935976378
30.14322023668459
30.14282075643139
30.14245127132883
30.14193757160564
29.1660570763034
30.14248495345781
30.14226276683184
30.14204367395164
29.9790759157294
30.14185594447693
30.14177875184415
29.97907009629261
29.97898189411798
29.97897048826571
29.91979450259673
29.91120663692796
30.14986826034376
30.14461503130923
30.14332481266254
30.23787472286009
30.23273808264576
30.14701122420507
30.14490931133864
30.14294260542718
30.14829194349289
30.14652582303924
30.14499253018094
30.1438325950276
30.14255890364473
30.14391775439621
30.14346725975567
30.14300069345938
30.14257719312058
30.14221873965395
29.59903939640331
29.59246034945588
29.58898741700119
29.65365611905084
29.65357946318216
29.97896247765365
30.14137581981432
30.14341145952719
30.14316896613057
30.14209785518725
29.91330009175764
30.1506895026758
30.14479360009245
29.59747323540299
29.59409377429364
29.04649236859654
29.6486583027078
29.73387763220454
29.67444845279101
29.04898717421936
29.84879033697987
29.97892905049289
29.65359174188249
29.65353208346511
29.65348718845232
29.65345331278083
29.65342768523747
29.65340839308513
29.65339414485857
29.65338408075239
29.65337764483587
29.65337450465902
29.97901304669103
30.14368268748152
29.16606354132541
30.14187324139437
29.93388384229961
30.23856640531881
30.14872155579091
30.14401771287724
29.32856204345867
30.14198010547091
29.16594911244634
30.14190345532542
29.16593690724846
29.97910368517889
29.32855080749277
29.16611944593514
30.14255554098625
29.16603750626803
30.14285332560888
29.16608264194164
30.14240115870928
29.16601387880005
29.16596350348966
30.14241396610187
29.16601593322123
30.14198363506724
29.1659496552623
30.14228009626864
29.16599536805715
29.16606977395544
30.14251598710244
29.16603124595353
30.14234599269021
29.16600541169368
30.14217721816843
29.16597939537985
29.16592714481722
30.1419508096765
29.16594445014753
30.14223192445441
29.1659879430296
30.14208369214327
29.16596496534265
29.16601876088056
30.14220379945852
29.16598329628007
30.14212134227214
29.16597072730899
30.14196262694286
29.16594525624599
29.97911544454766
29.16592098043013
29.32855506921858
30.14203419477058
29.16595723434504
30.14189742296114
29.1659343465056
29.16597225850204
30.14193737023396
29.16594192692322
30.14176171262756
29.16592042339536
30.14191666845213
29.16593685152521
29.16619549324153
29.16608524628266
30.14287013392448
30.14331949280396
29.16615316534573
30.14269939063556
29.16605929093007
29.16613814270941
30.14291929894866
29.16609253687227
30.14263759305764
29.16604987764795
30.14244587794742
29.16602058856677
29.16607757589986
30.14253912956395
29.16603470124971
30.14238157140419
29.16601072750473
30.14219313432036
29.16598170054202
29.16602127825033
30.14220887380237
29.16598408879404
30.1421328260017
29.16597236984775
30.14196197162191
29.16594586785858
29.16594198076069
30.14176240611585
29.16591582039983
30.14213540675673
29.16597276910973
30.1419092275263
29.16593761420405
30.14268429905982
30.1422460887695
29.16599030241631
30.14253815093207
29.1660347871413
30.14215205226857
29.16597573877452
29.1660266535929
30.14231885898592
29.16600116403046
30.14211733704866
29.16597033672207
30.14200761424432
29.16595302605431
29.16599251408525
30.14209711485059
29.16596683417403
30.14197022483665
29.16594697119692
30.14185779415188
29.16592813924413
29.16595852087499
30.14189019815835
29.16593466026887
30.14181893545459
29.16592115289556
29.97911466851937
29.328554809994
29.16592869330196
30.14213118243061
29.16597266072515
30.14179910603829
29.16591952356897
30.14204927978215
29.16595987722086
29.16591580002424
29.97911403592496
29.32855444568882
30.14201896135916
29.16595510778578
30.14192334469975
29.16593960089341
30.23931543701035
29.58605776573028
29.08581103568532
29.91501183153905
29.58496413821502
30.23413078016706
29.08541108191483
30.23301841584809
29.0853212884615
29.58136986405418
30.23348483193034
29.08536204975358
30.14847490327027
29.16694326734113
29.16716305776871
30.1469088168587
29.16670091064228
30.14764937529531
29.16681504515299
30.14571494345672
29.16651724966348
29.16634968801009
30.14619872850325
29.16659159346133
30.14521818321176
29.16644138243117
30.14405504234659
29.16626460928869
30.14422344977115
29.16615413389871
29.16629023491356
30.14304085500044
29.16611106166488
30.14375421300322
29.16621904313306
29.0856978455338
30.14947273927709
29.08517526321204
30.23331898122051
29.08534917237006
30.14779760497537
29.16683700615437
29.08530490725119
30.14770578870427
29.16682362502199
30.14726643123711
29.16675498490063
30.14583634299975
29.16653546746459
29.16671624887971
30.1453461333042
29.16646084115647
30.14542222545336
29.16647223908489
30.14436864069246
29.16631202077245
29.16639428263301
30.14386996437853
29.16623654030894
30.14407594120206
29.16626765121681
30.14334717362657
29.16615732716436
29.16609614597047
30.14265190131034
29.16605193446689
30.14359708017652
29.16619522766171
30.14314741138332
29.16612708752733
29.16691303208371
30.14579907010551
29.16652926978015
30.14695734202722
29.16670717508367
30.14509050351525
29.16642143640009
29.16664089644443
30.14534198586946
29.16645992889929
30.1448511932282
29.16638508810333
30.14416362635155
29.16628084070815
29.16640673176392
30.14408810714137
29.1662694669826
30.14395073625694
29.16624860793808
30.14337482504669
29.16616145666075
29.16623077301332
30.14318749026621
29.16613313436022
30.1432048256035
29.16613572359329
30.14275906953807
29.16606814033563
29.16603775294285
30.14229850697594
29.16599787710538
30.14300827772336
29.1661059904898
30.14263060603801
29.16604860802983
29.1662436130721
30.14521300234885
29.16643996396986
30.14358450196992
29.16619322212674
30.14463145395791
29.1663517042388
29.16617548931086
30.14311497298559
29.16612216671524
30.14443272657668
29.16632158358754
30.14385444542752
29.16623402793324
29.16610484761345
30.1426771619897
29.16605571149629
30.14367301211082
29.16620657581949
30.14317594348042
29.16613135098046
29.16604048375023
30.14230388827611
29.16599869013675
30.14302734652836
29.1661088399985
30.14263327677352
29.16604900698312
29.16598559998974
30.14200203612477
29.1659521005115
30.14222180841402
29.16598608149789
30.14251844239973
29.16603151070132
29.08859547123163
29.64603955214623
29.31153684076036
29.59538933839005
29.08776157680525
29.60246535108186
29.04631021958214
29.08750340246456
29.59075192277506
29.60044181425572
29.08882172196524
29.08761310222786
29.08682210101577
29.58746457202824
29.08614281242136
29.58393226146431
29.58597598453188
29.08654791474329
29.08729571430947
29.08662851591326
29.58618379772399
29.16591817092939
30.14200240470858
29.16595271894056
30.14205653319938
29.16596122973154
30.14180955390281
29.16592095885926
30.14437119498487
29.16616727190151
29.16631268193586
30.14474798288228
29.16637001325337
30.14362686749915
29.16619993483968
29.16613056974279
30.14260122550721
29.16604448229464
30.14334996950794
29.16615802524091
30.14271213661734
29.16606139796397
29.16596748707362
30.14245332001817
29.16602196280891
30.14215949936125
29.1659770802967
30.14254844093827
29.16603651912367
30.2335317309521
29.08536515624037
29.5820584419269
29.91681953010119
30.23710988904664
29.58519120269347
29.08564308094655
29.08530039267688
30.14731553956941
29.16676384843555
30.2358425609018
29.08554451469431
30.14842484531098
29.16693659046095
29.16637687531005
30.14652640252384
29.16664203387531
30.14525382373881
29.1664470931868
30.14740536637409
29.16677798126143
29.048157618069
29.31666487226614
29.04731547871426
29.31099396258917
29.604135255397
29.04633162716725
29.08793030411276
29.08900489061459
29.58950663803816
29.08669692795748
29.08755659583139
29.59201350184307
29.08716094392358
29.08841721419179
29.40565250057934
29.67005915810802
29.65943194998778
29.39854132051845
29.04698665283011
29.30875494285448
29.30542408854933
29.04782189562198
29.31440227735422
29.04708904021413
29.30945714128154
29.65289917261656
29.39571572883482
29.39148877913494
29.40281467285507
29.66582078620457
29.65648069224846
29.39660463041523
30.01517049970829
29.75717890003459
29.74568345836268
29.92082056720521
29.90360195753874
29.9089125208682
29.82390134114701
30.00995049727295
29.75259848359205
29.74246209926951
29.90988932734788
29.04953633570985
29.32587832937364
29.04847893061387
29.31881856862386
29.69431990768774
29.41714569099091
29.40834455261444
29.67402963201716
29.66462623792625
29.41259394755405
29.40198128872207
29.65978411048741
29.39722889071875
29.40512828125115
29.66926470522504
29.32222121235139
29.31373292431261
29.04772149865626
29.04716370210766
29.3099558940187
29.04809651192807
29.31624928566731
29.7831187570375
29.95783881802717
29.96722533188621
30.0199856673845
29.76145104456799
29.93503132481489
29.75133590938625
29.92037375367421
29.91742140804899
29.74606676249246
30.01419794405144
29.7563185412586
29.16620808970881
29.16609281799046
30.14292002788105
30.14272677990054
30.14227302980165
29.16599445759278
29.16593139981065
30.14215452875453
29.16597628413603
29.5970650663277
29.92967179954119
30.24011367192694
29.59559512678938
29.08587356900334
29.08575149292682
30.2311594137926
29.08519588981813
29.16697977008607
30.14601965698224
29.16656289772984
29.16625872647108
30.14539213425239
29.16646718420681
29.64180725072462
29.04595663888204
29.65186399491699
29.04990549660041
29.32833506370828
29.69955823905443
29.42020384983998
29.6777009287703
29.66706990433085
29.41516969298765
29.40359659787472
29.04929564565576
29.32428392724258
29.31501756957623
29.04791151584253
29.76816757260704
29.73102180325626
29.7637018232222
29.77227308795572
29.76010012496205
29.75799718141869
29.76982392289715
29.75394146034802
29.75582189451469
29.74955307606966
29.75209385650863
29.75235336536095
29.76622581305531
29.77428285536159
29.7621059702089
29.75646604794968
29.75399332805434
29.72639430877578
29.73746094340486
29.32849106164454
29.97903111761247
29.32852483680815
29.97892392277836
29.32848344587103
29.97900507546468
29.32851560629306
29.32855845564005
30.14187476535201
29.16593211565162
29.97902860370068
29.32852341835252
29.97906665111363
29.32853785441113
29.97902539412366
29.32854039751762
29.32852241818975
29.97899102296604
29.9789495395986
29.32850656561862
29.32849199281991
29.81725610578566
29.81745164073004
30.14289346739392
30.14301784952087
29.81739495716129
29.81730443947419
30.14282706226357
29.81675878882152
29.81670788524131
30.14217417605406
30.14204495921816
29.81668823306294
29.81678181269784
30.14214237463136
29.81704657167053
29.81721360309749
30.14268378092886
30.14261267091446
29.81710015909139
29.81715182416576
30.1425389530407
29.81662551932309
29.81654588950841
30.14188336613098
30.14192137717124
29.8165692998129
29.81659785761365
30.1419590223544
29.81683694916179
29.81697053551616
30.14235491314401
30.14232058077217
29.81688791561135
29.81691281217782
30.14225042635901
29.81654022551279
30.14176989043693
29.81652102050823
30.1418826504716
29.81649809330813
29.81656958400296
30.14184345595311
29.81664818741732
29.81675123215324
30.14206417106517
30.14205263671565
29.81669292117797
29.81670166005362
30.14199106256994
29.32851224822201
29.97907670482276
29.32853954390498
29.97905606776476
29.32853550205603
29.97914789167102
29.16592684698183
29.16593245884427
29.97908758080845
29.32854498301827
29.97908751418144
29.32854542448855
29.97901652833325
29.32851870643863
29.97889163960413
29.32848963400843
29.32847499800345
29.97901196222216
29.32851681924912
29.97895406832235
29.32849296789346
29.32851664857169
29.9789432436021
29.32848974381339
29.97895499777025
29.32849266299719
29.97889807400035
29.3284767795415
29.32851057214267
29.97910021155925
29.3285494612663
29.97907442870416
29.32854028788604
29.9789808460768
29.32850390027697
29.3285295539855
29.97901092766116
29.32851779165458
29.97895575061149
29.32849520623075
29.97892658937543
29.3284854251349
29.81756193438751
29.81781815641622
30.14332277342429
30.14351022999688
29.81775317353399
29.81761652841362
30.14324781189043
29.817320752568
29.81754188674152
30.14311983080167
30.14300214232122
29.817383114264
29.81746878340199
30.1429164180035
29.81707258751652
29.81725119127785
30.14272422646128
30.14265889400309
29.81713352094351
29.81718101003067
30.14257503835597
29.81684465948289
29.81698268429789
30.14236685991753
30.1423358221853
29.81689884549238
29.81692138910934
30.14226117914863
29.81660670345861
29.81661013417434
30.14187710821087
30.14199968403741
29.81656616099764
29.81665518657888
30.14193269114623
29.4915180991388
29.4916080763389
29.16603215838922
29.16605007644642
29.49158773449554
29.49153553679623
29.16602613340344
29.81687392515936
29.81700718534476
30.14243036401806
30.14234869706286
29.81696754037655
29.81690827120675
30.14230139230435
29.81673213584396
29.81684582330267
30.14220692329636
30.14215532363178
29.81680525308877
29.81676779466782
30.14210635190068
29.81659330254134
29.81668670334332
30.14199144709482
30.1419618583602
29.81664883382066
29.81662703488011
30.14191547532083
29.32854025915796
29.97899573419771
29.32851159365963
30.14184600309754
29.16592712547758
29.97905075374089
29.32853176971709
29.81659544289445
29.81655107980281
30.14193709994431
30.1418377472935
29.81653677061421
29.81661012437937
30.14191726414361
29.8165285226297
29.81649374553375
30.14174708963716
30.14185087711489
29.81648143139438
29.81654677261885
30.14182892826677
29.32853842315813
29.97902592399874
29.32852260535307
30.14189091231298
29.16593411282658
29.9791284345933
29.16591682364773
29.32850767407869
29.97893678876695
29.32849161736683
29.97907370146411
29.3285416278996
29.97902019530492
29.32852140722596
29.92160653719222
30.25559669041699
30.24853459509621
29.74794486023729
30.24953034144209
29.75077864740678
30.24623948333993
30.24045337155579
29.7423047001154
30.23692934881769
30.23811938242804
29.74408228010399
29.7438639705641
30.23604055601891
29.82113063247113
29.82245782556303
30.14871749082579
30.14908453609547
29.82187212788443
29.82159762410455
30.14809073529716
29.81872997028765
29.81856223721747
30.14506687716356
30.1444302521278
29.81842669762232
29.81889401236371
30.1448436825312
29.81772968721954
30.14358541449079
29.81761864039109
30.14323322670045
29.81755185046148
29.81780877425311
30.14347709441939
29.74140968173148
29.74460380905025
30.23541808606883
30.23538398924246
29.74326252587588
29.74230113994386
30.23436927050041
29.82132780539883
29.74125516504128
30.14933586804955
30.14912113276171
29.82205770595246
29.82189597505694
30.14835889869976
29.81950692067744
29.82032791643875
30.14639064722028
30.14642844381577
29.81986893319399
29.81989654074301
30.14590044881009
29.81831038407441
29.81877787298659
30.1445212962301
30.14461494386878
29.81849320996467
29.81856177241153
30.14427184403
29.81739856427762
29.81734011169133
30.14284444543014
30.14313673878397
29.81726866207513
29.81748146386031
30.14302294237455
29.82028507361474
29.82127499641314
30.14731154652042
30.14784721092914
29.82094486700276
29.82054721954217
30.14695699158932
29.81924318418522
29.81996717458767
30.14611052550409
30.14588599598552
29.81966083390483
29.8194950348621
30.14554375006515
29.81835210096454
29.8188383953899
30.1446672512095
30.14460669788157
29.81859976910749
29.81855524654243
30.14432933471255
29.81767363741383
29.8179889259056
30.14359823398008
30.14360665520397
29.8178178003574
29.817823893666
30.14340067135767
29.81708567986841
29.81706099933172
30.14246878365094
30.14269527372504
29.81699550803634
29.81716010921858
30.14259290075016
29.8182260464704
29.8180505623023
30.1442859176398
30.14381120407421
29.81797278099455
29.8183196955226
30.14415781551483
29.81782489001503
29.81772190398083
30.14334918191036
30.14374785519396
29.81763584956804
29.81792662828211
30.14360841559527
29.81743405115489
29.81738209565017
30.14288928102888
30.1432009724503
29.81730104003559
29.81752792088812
30.14307204877981
29.81709518893215
29.81707416344401
30.14248159333765
30.14271452581077
29.81700471687457
29.81717398153138
30.14260611228958
29.81681979054403
29.81681390010618
30.14214268676263
30.14231156069969
29.81675872406168
29.81688129319209
30.1422268210826
29.5972026454959
29.60088202799716
29.6476817280653
29.43069153867992
29.4293012150393
29.42793831827973
29.39083045403746
29.59034653378328
29.59194186916565
29.59439127191569
29.42442830412687
29.42404251143723
29.42286521737604
29.42585770558953
29.58740016226378
29.59057612407347
29.58873422138304
29.42069717370266
29.42303671996737
29.42186524475227
29.42167858482008
29.32849729808063
29.97905385712864
29.32853251994194
29.97897691230607
29.32850220911534
29.97907046170657
29.32853901118184
29.81655059093222
29.81647907346263
30.14183627912655
30.14176902432594
29.81653804494774
29.81649981225593
30.14185467250973
29.81795392822409
30.14368835885985
29.81768185660948
30.14349167790232
29.81788397633625
29.81774040729893
30.14378406823311
29.81739154484278
29.81750506682204
30.14295579861911
30.14323657784713
29.81734982180368
29.81755435814703
30.14301308715398
29.81682262014387
29.81672640113361
30.1422036438091
30.14212108444264
29.81680317876451
29.81674330476945
30.14223041352711
29.91442985070713
30.24172674313896
30.24259926237717
29.74625898512964
30.23884153072553
29.74443381444057
30.24090806373683
29.82255477664196
29.7412380275184
30.14935902859322
30.23365350737354
29.82207601307924
29.74214797604187
30.14999445487841
29.81920582964641
29.81869333731145
30.14528405355803
30.1449622385112
29.81905379859399
29.81881725072451
30.14549048337045
29.13889130530354
29.04892124954635
29.14010656657944
29.04851274586393
29.60020097471303
29.59692828331067
29.59471143278536
29.43018103920643
29.42609674279982
29.42815072761239
29.42774066604744
29.59163774198523
29.59228332914109
29.59015158040387
29.42381827212821
29.42429742411388
29.42272257823888
29.42563578956182
29.49787718959553
29.41209900589921
29.40869428252741
29.50188630235386
29.13395236559415
29.04665146707481
29.13288358472164
29.046678511038
29.13334491634575
29.13342573828552
29.04685618825485
29.65077014406127
29.65113512305292
29.56741372106199
29.5631115699388
29.56500380973556
29.56533947404937
29.65343042802638
29.93530374681996
30.02680695374591
29.94108858582666
30.02090444717291
29.81890567507879
29.82139400367401
29.73620047979135
29.73659704024235
29.8218179578005
29.82451638262712
29.73912777566759
29.14439651855875
29.0509024251483
29.14599265837145
29.05036490343819
29.70276866265004
29.60668246025073
29.69661520997805
29.61237002525284
29.68028655099056
29.58344951185283
29.59169354946163
29.67653016883831
29.5882802690031
29.67121588945765
29.5863749154726
29.13810878559739
29.14030163983126
29.04850867946038
29.04868204145851
29.13939326805288
29.13887749097399
29.04825062458179
29.79203660200632
29.88017798969589
29.87344643808892
29.78553837923923
29.76192714639394
29.85537122363305
29.76818532028253
29.84508788933462
29.76414586530887
29.75843568295863
29.8511074632486
29.32851843848652
29.97912431286444
29.3285573280844
29.81771388747033
29.81787892718685
30.14339263419618
30.14375897170729
29.81766742012611
29.81793457617933
30.14345640722294
29.4915661583136
29.49162688245093
29.16603770868445
29.1660693948976
29.49155161828617
29.49164392499164
29.16604272200133
29.81663364789654
29.81656594683503
30.14195508292273
30.14188125082476
29.81662348833729
29.8165691367344
30.14196977233606
30.26800379333458
29.75587285943999
29.74346450557672
29.74506009678438
30.23594236223946
30.23993654824365
29.74259869765866
29.74640877473706
30.23697274784563
29.8210396796295
29.82159445929352
30.14765366101828
30.14913485253474
29.82080035051229
29.82190361141858
30.14797704004873
29.81848924617906
29.81812355735254
30.14440654892217
30.14410950818266
29.81840791955965
29.81819061272754
30.1445177073852
29.81657159601743
30.14189490747509
29.81664085150753
30.14195773910681
29.81662534489659
29.81657772767495
30.14188157107275
29.49125445899444
29.16593505793543
29.49129699250117
29.16594554813913
29.49128729825042
29.49126036330977
29.16593236780502
29.81655087873502
30.14193150575609
29.81658530423472
30.14183134719099
29.81653152736657
29.81660590365123
30.14185708151369
29.49124367976437
29.16594139319401
29.49126305258335
29.16592422073594
29.49123174833869
29.49127564073011
29.16592836541039
29.49167155820733
29.49179071267353
29.16608881608374
29.16610763539978
29.49175615604802
29.49170101984861
29.16607871966706
29.81713284643493
30.14271448368126
29.81705871490421
30.14250654689353
29.81702310643469
29.81717424540377
30.14265756207187
29.49159647000664
29.1660616646338
29.49155132538583
29.16603001774499
29.4915296187348
29.49162170412513
29.16605299001635
29.8172055142143
30.1429367065202
29.81727516996171
30.14268578750666
29.81715332657053
29.81733586648043
30.14275753319156
29.49164072138542
29.16609531264056
29.49168313888742
29.16605721446677
29.49160891223095
29.49172013543887
29.16606814059024
29.81708935023106
30.14245487790172
30.14253577553544
29.81694653241421
29.81698556055603
29.81704430490802
30.14259774200099
29.49156995697436
29.16602211086494
29.1660344015369
29.49148293371132
29.49150672924081
29.49154249848804
29.16604386489678
29.49136856847288
29.49133758531105
29.16597921534344
29.16595925611811
29.49132558080946
29.49138260957962
29.16597430093999
29.8168374361736
30.14228749161746
29.81695587324676
30.14237163666455
29.81692513059729
29.8168640490582
30.1422508119302
29.49141649515055
29.16599660122014
29.49148867249207
29.16600944092572
29.49146992898223
29.49143272313621
29.1659909543476
29.81673412077582
30.14201520639329
29.81664366818454
30.14207254611779
29.81666661574722
29.81670813189768
30.14210836567324
29.49135352100724
29.16595461133779
29.4912984008861
29.16596346029345
29.49131241102581
29.49133766083852
29.16596902917486
29.81680915119054
30.14232684026618
30.1421710051922
29.8168586559454
29.81689259842464
29.81677951662926
30.14221183828527
29.49139924326565
29.16600256003125
29.16597863091053
29.49142939076663
29.49145009149198
29.49138116410825
29.16598494249712
29.491543841636
29.49164561395354
29.16605684335639
29.16604606749857
29.49157650559104
29.4916079607389
29.16603481421355
29.81699306033083
30.1425993128837
29.81702984288027
30.14239235703654
29.81694005374358
29.81709040773906
30.14246531738515
29.49151122112755
29.16604396749261
29.49153361143471
29.16601237944799
29.49147890298199
29.49157052789992
29.16602355584568
29.81695160041691
30.14247237428842
29.81690646204439
30.14228994896196
29.81699822891316
29.81686576274006
30.14240819586648
29.49148598141896
29.16602470611334
29.49145849992091
29.16599679380122
29.49151440985268
29.49143367858935
29.16601487637599
29.81690484776255
30.14227979600541
30.14223354516209
29.81678391178694
29.81682480767996
29.8168583424553
30.14234383136043
29.4914574724815
29.1659951507224
29.16598810056743
29.49138373682257
29.49140869465083
29.49142910666338
29.16600499955364
29.49128752580124
29.49124006385364