/*--------------------------------*- C++ -*----------------------------------*\
  =========                 |
  \\      /  F ield         | OpenFOAM: The Open Source CFD Toolbox
   \\    /   O peration     | Website:  https://openfoam.org
    \\  /    A nd           | Version:  7
     \\/     M anipulation  |
\*---------------------------------------------------------------------------*/
FoamFile
{
    version     2.0;
    format      ascii;
    class       volVectorField;
    location    "0";
    object      U;
}
// * * * * * * * * * * * * * * * * * * * * * * * * * * * * * * * * * * * * * //

dimensions      [0 1 -1 0 0 0 0];

internalField   nonuniform List<vector> 
12684
(
(1.000224411116573 9.7144259152106e-06 8.565599439911791e-06)
(1.000210787679956 8.198654376800554e-06 7.338807692748783e-06)
(1.000199669842451 6.780096877166787e-06 6.395782418469297e-06)
(1.000190796842358 5.442721861474626e-06 5.681230687863636e-06)
(1.000183952335571 4.169801744188465e-06 5.153419934610152e-06)
(1.000178965449306 2.945258084640137e-06 4.781817452652197e-06)
(1.00017570994403 1.754137456473694e-06 4.545169998319945e-06)
(1.000174102769657 5.82569332952267e-07 4.430081032069331e-06)
(1.000259943456044 1.22529992863642e-05 1.295493418615886e-05)
(1.000241589860564 1.094191353316679e-05 1.089451555824768e-05)
(1.000225733674922 9.642899303328178e-06 9.235501518296512e-06)
(1.000212218733816 8.378072564017996e-06 7.912026908351872e-06)
(1.000200866932017 7.155971812788444e-06 6.866012458312809e-06)
(1.000191500736814 5.976903303352634e-06 6.04880616938909e-06)
(1.000183956954194 4.836617245340758e-06 5.421155718962427e-06)
(1.000178094577584 3.728656237063034e-06 4.952434193699217e-06)
(1.000173798874234 2.645738499265159e-06 4.619638165538403e-06)
(1.00017098324235 1.580478435055379e-06 4.406431852963575e-06)
(1.000169589872369 5.256736801755983e-07 4.302371781795381e-06)
(1.000239987124448 1.016566721281215e-05 1.124653948869591e-05)
(1.000225328644484 9.22727758711369e-06 9.616739421001293e-06)
(1.000212471239198 8.25098824319952e-06 8.275083191508711e-06)
(1.000201362516519 7.260312245744843e-06 7.183450703574934e-06)
(1.000191919798775 6.268890037702995e-06 6.305629339580711e-06)
(1.000184048248899 5.283638111310106e-06 5.609560252766948e-06)
(1.000177653273268 4.30719374143071e-06 5.068242330595557e-06)
(1.000172648623978 3.339658562299025e-06 4.659880399779202e-06)
(1.000168961457391 2.37975566221505e-06 4.367663533488966e-06)
(1.00016653534373 1.425540131511743e-06 4.1794108338258e-06)
(1.000165331958965 4.747928293583339e-07 4.087224042613687e-06)
(1.000223231764827 8.54165315781772e-06 9.6459158036186e-06)
(1.0002114695502 7.864333796403151e-06 8.366805861711772e-06)
(1.000201010195235 7.122707413984232e-06 7.293343906408396e-06)
(1.000191860677849 6.338281073329748e-06 6.404590328325556e-06)
(1.000183997365651 5.525870988931641e-06 5.678824645962273e-06)
(1.000177379560763 4.695323904082107e-06 5.095610449387696e-06)
(1.000171959566268 3.853020256223004e-06 4.636933226808707e-06)
(1.000167689858974 3.003056766392249e-06 4.287731980749769e-06)
(1.000164528011244 2.148109302273492e-06 4.036071042386723e-06)
(1.000162439942184 1.290023248188457e-06 3.873124819919018e-06)
(1.000161401963989 4.301945039719383e-07 3.793089061023714e-06)
(1.000209345708129 7.285678398704577e-06 8.150000776775969e-06)
(1.000199833587807 6.790685263428117e-06 7.15495620121176e-06)
(1.000191270048796 6.21869358503696e-06 6.305935673282293e-06)
(1.000183694147826 5.588131582375097e-06 5.592318794832167e-06)
(1.000177117433545 4.913160874479268e-06 5.001689604108359e-06)
(1.000171533592401 4.204536287747383e-06 4.52148809225063e-06)
(1.000166926123928 3.470462472221941e-06 4.140069320812012e-06)
(1.000163274185033 2.717337010055953e-06 3.847327312159049e-06)
(1.000160556872538 1.950341100458422e-06 3.635025503245906e-06)
(1.000158756239313 1.173880221387185e-06 3.496946528827516e-06)
(1.000157859310719 3.918986499648151e-07 3.428942795142691e-06)
(1.000198021327875 6.322567413500706e-06 6.746890256697596e-06)
(1.000190238609194 5.954409226848541e-06 5.982430300445055e-06)
(1.000183154106653 5.504261534068276e-06 5.320956956854468e-06)
(1.000176822765986 4.987454786839155e-06 4.757807356538977e-06)
(1.000171276149445 4.416796329081914e-06 4.286339508247186e-06)
(1.000166529071443 3.802931473073847e-06 3.899162022398313e-06)
(1.000162585211853 3.154782306958669e-06 3.589003402686242e-06)
(1.000159441638564 2.479975663650072e-06 3.349288579732119e-06)
(1.000157092299925 1.785214921480874e-06 3.174497649485717e-06)
(1.000155530605786 1.076580444588942e-06 3.060374376522188e-06)
(1.000154751227116 3.597620628748568e-07 3.004038175539082e-06)
(1.000188989854989 5.594387558009114e-06 5.421126423381902e-06)
(1.000182515512189 5.313825773204369e-06 4.845586955352298e-06)
(1.000176564074261 4.95033411291007e-06 4.341802379787588e-06)
(1.0001711972104 4.51656351343285e-06 3.908336116401923e-06)
(1.000166457188528 4.023849634490227e-06 3.541973678418224e-06)
(1.000162371320471 3.482295322235301e-06 3.238595080116756e-06)
(1.000158955952613 2.900950692570114e-06 2.993836356541593e-06)
(1.000156219852907 2.288027475439634e-06 2.803563205299619e-06)
(1.000154166949988 1.651108534006732e-06 2.664192641140331e-06)
(1.000152798440723 9.973329087470529e-07 2.572900407839958e-06)
(1.000152114309756 3.335504372879379e-07 2.52774687319299e-06)
(1.000182027646821 5.057527854796003e-06 4.156562402785184e-06)
(1.000176517445644 4.836537893044871e-06 3.738472742196026e-06)
(1.000171409507074 4.533537448592845e-06 3.369143108251226e-06)
(1.000166767413445 4.159060774587985e-06 3.048679897291033e-06)
(1.000162638681085 3.723135972856493e-06 2.77577007786225e-06)
(1.000159057683593 3.235217816597002e-06 2.548272378832096e-06)
(1.000156048446498 2.704213575400506e-06 2.363689939001497e-06)
(1.000153627144508 2.138558956825331e-06 2.219527404944383e-06)
(1.000151804210639 1.546314167996434e-06 2.113547539779034e-06)
(1.000150586019001 9.352616125515236e-07 2.043946736628962e-06)
(1.000149976134104 3.129959014351599e-07 2.009468154909913e-06)
(1.000176957795227 4.680139143591379e-06 2.93774914609005e-06)
(1.000172124607916 4.49828436205862e-06 2.654309490191027e-06)
(1.000167613659083 4.235905805227361e-06 2.402212954005869e-06)
(1.000163488277803 3.901998588556224e-06 2.182094845167501e-06)
(1.000159798238632 3.505570423012472e-06 1.993578045249484e-06)
(1.000156581681658 3.055498038147903e-06 1.835648242801186e-06)
(1.000153867082334 2.560464827555509e-06 1.706965883914998e-06)
(1.000151675107529 2.028951421053296e-06 1.606111073760398e-06)
(1.000150020250196 1.469257130942326e-06 1.531766297392124e-06)
(1.000148912178021 8.895364038353383e-07 1.482846143672469e-06)
(1.000148356760913 2.978404779986726e-07 1.458583885507021e-06)
(1.000173649501729 4.440082594867292e-06 1.750424293797167e-06)
(1.00016924645042 4.281875410372818e-06 1.586256951030304e-06)
(1.000165116932897 4.044457994737667e-06 1.439581276829873e-06)
(1.000161323414028 3.735831759031963e-06 1.31097678759999e-06)
(1.000157916460541 3.364316276263708e-06 1.200421255409873e-06)
(1.00015493605786 2.938369507643002e-06 1.107497178932138e-06)
(1.000152413067698 2.466478653634279e-06 1.031568010821013e-06)
(1.000150370673339 1.957102242492545e-06 9.719200665598614e-07)
(1.000148825701546 1.418646919486669e-06 9.278709352390553e-07)
(1.000147789744593 8.594655443207817e-07 8.988481675406671e-07)
(1.000147270033604 2.878671338475666e-07 8.844429001743451e-07)
(1.000172016686775 4.323418087701587e-06 5.814650277206224e-07)
(1.000167822489998 4.176339809768129e-06 5.277071517016934e-07)
(1.000163878803242 3.950794206409402e-06 4.795685858281632e-07)
(1.000160247470923 3.654297134944906e-06 4.372731491729799e-07)
(1.000156979258153 3.294823686538942e-06 4.008455002614654e-07)
(1.000154114885554 2.880614323170747e-06 3.701768529915895e-07)
(1.000151686242356 2.420045675354685e-06 3.450818706501277e-07)
(1.000149717632187 1.921550877097975e-06 3.253450123887789e-07)
(1.000148226940313 1.393575518391536e-06 3.107564153112714e-07)
(1.000147226641983 8.445573665237801e-07 3.011381440036569e-07)
(1.00014672459725 2.829207382542965e-07 2.963623131517598e-07)
(1.00028089408162 1.353338060074041e-05 1.548555335831137e-05)
(1.00025644362386 1.102920824120954e-05 1.320010810232037e-05)
(1.00023624194433 9.124820898590563e-06 1.11474847132928e-05)
(1.000219728382652 7.680329138233166e-06 9.297521744877744e-06)
(1.000206416570696 6.590739227009441e-06 7.615400767788925e-06)
(1.000195901439154 5.778155434612105e-06 6.067004457715457e-06)
(1.00018785768199 5.18567920003623e-06 4.621195348598635e-06)
(1.000182034696512 4.772742815974692e-06 3.250463533606974e-06)
(1.000178250743873 4.511664506721739e-06 1.93067728336516e-06)
(1.000176387792204 4.38524307553345e-06 6.403487480636907e-07)
(1.000260402375658 1.307954713395675e-05 1.217470049291908e-05)
(1.000240840286012 1.133999434111385e-05 1.014760138863891e-05)
(1.000304140551425 1.469875287885691e-05 1.850936251892834e-05)
(1.000274379807147 1.175722594539942e-05 1.547429274308458e-05)
(1.000250199958709 9.570963587746734e-06 1.28576684214513e-05)
(1.000230712971201 7.944730760560041e-06 1.058046058579094e-05)
(1.000215189398339 6.738295109215444e-06 8.571370876462569e-06)
(1.000203045942816 5.851007530249101e-06 6.768851962242809e-06)
(1.000193828451319 5.21131820510371e-06 5.120979242819225e-06)
(1.000187195204029 4.769337919317964e-06 3.584296225299398e-06)
(1.000356523276592 1.628134036695744e-05 2.607478565557806e-05)
(1.000329385147005 1.565180609388499e-05 2.203258286384171e-05)
(1.000313695732192 1.254942022228912e-05 2.094735439521802e-05)
(1.000293506103701 1.228601032536045e-05 1.805608999242896e-05)
(1.000280068199357 9.883473963672221e-06 1.68442449165958e-05)
(1.000264849221418 9.837931078803781e-06 1.475813669836831e-05)
(1.000253727138969 7.972720320300339e-06 1.348986508191992e-05)
(1.000242081324238 8.0511854761717e-06 1.198037697534789e-05)
(1.000233231676521 6.601054849664224e-06 1.068901592611986e-05)
(1.000224157455306 6.747354875596968e-06 9.59848938165653e-06)
(1.000217503395294 5.619887775261263e-06 8.29371989072189e-06)
(1.00021027107338 5.801672419411381e-06 7.513353070391288e-06)
(1.000205745016061 4.928273370412371e-06 6.19028197829058e-06)
(1.000199811165558 5.127531799822362e-06 5.645783122009601e-06)
(1.000197380335513 4.458634886680944e-06 4.290431363081624e-06)
(1.000192327590816 4.665783065515204e-06 3.932201415155552e-06)
(1.000192010967221 4.167138577771802e-06 2.524073293993819e-06)
(1.000187504566292 4.377424872463633e-06 2.320672907672224e-06)
(1.00018290266217 4.491616652866969e-06 2.122138416727966e-06)
(1.000189386631929 4.027534632278463e-06 8.33217812917025e-07)
(1.000185141673539 4.238819277302862e-06 7.672694889694107e-07)
(1.000180794549426 4.357631329603613e-06 7.02737369070232e-07)
(1.000411096851117 2.156361120449175e-05 3.269732318790925e-05)
(1.000374159319148 2.032254039713258e-05 2.689339975111841e-05)
(1.000283427172381 1.49206706462322e-05 1.475609832843731e-05)
(1.000310203765662 1.682165208245302e-05 1.801760661235701e-05)
(1.000340526000411 1.867128637987756e-05 2.204058165784222e-05)
(1.00045035342154 2.167279816225155e-05 3.966550361159995e-05)
(1.000487934202559 9.222584592874548e-06 5.028496558183885e-05)
(1.000466990117242 1.314842667344807e-05 4.586988956314405e-05)
(1.000441169910512 1.533081284783863e-05 4.030070757264236e-05)
(1.000413379682214 1.619841877131236e-05 3.474073627821173e-05)
(1.000384853556938 1.643561072002483e-05 3.051835575387234e-05)
(1.000406432199339 6.924106793610264e-06 3.665321203978358e-05)
(1.00039216278825 9.308567390044575e-06 3.404344377318077e-05)
(1.000374551039146 1.098189756118264e-05 3.075133901123631e-05)
(1.000354974128045 1.197904075066136e-05 2.732884877633877e-05)
(1.000334418357994 1.246720958967427e-05 2.407890905613527e-05)
(1.000347051342054 5.173092017535583e-06 2.742458541427741e-05)
(1.000337000283051 6.879037735905527e-06 2.572325586271472e-05)
(1.000324556545805 8.198092887990838e-06 2.362180711309262e-05)
(1.000310478719407 9.110489517992906e-06 2.135262490011887e-05)
(1.000295449094471 9.656733903465522e-06 1.906654729249915e-05)
(1.000303162647604 3.952760095893998e-06 2.075251393865818e-05)
(1.000295909165851 5.268986042435746e-06 1.961085281780866e-05)
(1.000286874703195 6.339102763798758e-06 1.821181813008248e-05)
(1.000276528674703 7.140120065150978e-06 1.666766406265718e-05)
(1.00026533591195 7.678087995044819e-06 1.507037841572455e-05)
(1.00027057447701 3.11928160904262e-06 1.571923519488286e-05)
(1.00026520442588 4.180130104339869e-06 1.494528641948548e-05)
(1.000258470926606 5.071628644577309e-06 1.399533236510051e-05)
(1.000250684782878 5.773429018358587e-06 1.293197612516274e-05)
(1.000242168248029 6.281050003798943e-06 1.18133972649983e-05)
(1.000246485540888 2.551899340530135e-06 1.17741131401634e-05)
(1.000242390821813 3.437733955002133e-06 1.124892366080058e-05)
(1.000237224151376 4.200421500557039e-06 1.060107113099256e-05)
(1.000231201067527 4.822313548556899e-06 9.868361906732377e-06)
(1.000224551432747 5.295456285135626e-06 9.08807494459784e-06)
(1.000228996805643 2.168541964988033e-06 8.556078154942398e-06)
(1.000225761022671 2.934041521626795e-06 8.204800497578393e-06)
(1.000221655788378 3.605097842846598e-06 7.76919101202934e-06)
(1.000216837397915 4.166216953983638e-06 7.272647183044728e-06)
(1.00021147608433 4.608353358740974e-06 6.738962564248466e-06)
(1.000216826294424 1.916724272477992e-06 5.817342969811919e-06)
(1.000214153185283 2.601846511609378e-06 5.593391600411737e-06)
(1.00021074670044 3.210222007257814e-06 5.314472829725255e-06)
(1.000206726516539 3.727931680813468e-06 4.994706367734426e-06)
(1.000202225201703 4.145691047858499e-06 4.648717961346072e-06)
(1.000209132525596 1.764077424373425e-06 3.380191505932229e-06)
(1.000206799700659 2.39985712346424e-06 3.255652280046717e-06)
(1.000203817316401 2.969131843632137e-06 3.100084163764713e-06)
(1.000200283806544 3.45900482273661e-06 2.921057367444105e-06)
(1.000196309588411 3.860222403853587e-06 2.726501764703138e-06)
(1.000205405873261 1.691996648030257e-06 1.109068680399148e-06)
(1.000203233472754 2.304296588180813e-06 1.069105226388695e-06)
(1.000200451463065 2.85479151195244e-06 1.019109967962396e-06)
(1.000197148514993 3.33108591255515e-06 9.614676087503844e-07)
(1.000193424785593 3.723986356292499e-06 8.986897538182947e-07)
(1.000403851473065 3.669708088103905e-05 4.651569010836319e-06)
(1.000346331798295 2.752765225293364e-05 3.407395428416229e-06)
(1.000303696420523 2.085151626728264e-05 2.59393646274907e-06)
(1.000271959074248 1.580761877804952e-05 2.050448789220764e-06)
(1.0002484432349 1.184894233724973e-05 1.682899643149855e-06)
(1.000231334648056 8.615141386832505e-06 1.434801885467529e-06)
(1.000219408253598 5.859591786916289e-06 1.271695241218243e-06)
(1.000211859300695 3.4054366707752e-06 1.172709543831941e-06)
(1.000208199982419 1.117453061494145e-06 1.125928323004249e-06)
(1.000566539523297 6.360656600153977e-05 1.495546679724049e-05)
(1.000465968521579 4.636323168652569e-05 1.025452205422335e-05)
(1.000392698350155 3.454864007464239e-05 7.307357922459254e-06)
(1.00033849740325 2.613840318821248e-05 5.406648930030305e-06)
(1.000298038778054 1.993195708343305e-05 4.148321804797354e-06)
(1.000267756805166 1.518864470250552e-05 3.299257757170366e-06)
(1.000245224151568 1.142987525801027e-05 2.720722008631865e-06)
(1.00022877776031 8.334856281690781e-06 2.328015300574707e-06)
(1.000217285558544 5.68077479675844e-06 2.068789477987293e-06)
(1.000209999460587 3.305924656589827e-06 1.911036317869743e-06)
(1.000206464155845 1.085507121639551e-06 1.836361182292466e-06)
(1.000532920434783 5.643176780775486e-05 1.843535143438005e-05)
(1.000443623927802 4.18434303817682e-05 1.294590590203522e-05)
(1.000377263953046 3.16760694327363e-05 9.398336894168457e-06)
(1.000327531876701 2.425579341788412e-05 7.052202161847061e-06)
(1.000290046459133 1.86688611233627e-05 5.469761677235276e-06)
(1.000261776264299 1.43290332743506e-05 4.387232409360189e-06)
(1.000240615139668 1.084301264932178e-05 3.642017807296893e-06)
(1.000225098812869 7.939925552269192e-06 3.132273591228806e-06)
(1.000214219470334 5.427720697915863e-06 2.793893824186867e-06)
(1.000207305649143 3.164707361672563e-06 2.587173437616591e-06)
(1.000203946330956 1.040110956609879e-06 2.489096604606567e-06)
(1.000495628060053 4.89847678433379e-05 2.04690919928642e-05)
(1.000417551339715 3.70034666284219e-05 1.470688436445231e-05)
(1.000358800779925 2.844444691362699e-05 1.088426581274094e-05)
(1.000314205491936 2.206952171568232e-05 8.294358096599213e-06)
(1.000280218612926 1.717180984235313e-05 6.514001289381145e-06)
(1.000254352638357 1.329562426546803e-05 5.277883464128509e-06)
(1.000234849253324 1.01300964810561e-05 4.416979526306596e-06)
(1.000220466689607 7.456442159174144e-06 3.822756919259282e-06)
(1.000210339151668 5.116206780426337e-06 3.425614725337142e-06)
(1.000203884006193 2.990241816953386e-06 3.1818451401458e-06)
(1.000200742077081 9.83927543296007e-07 3.065866522505944e-06)
(1.000455299136033 4.100761568571739e-05 2.136618207291299e-05)
(1.000389200488073 3.191628897974019e-05 1.564903838517502e-05)
(1.000338445825412 2.503452437149582e-05 1.178935787778714e-05)
(1.000299309281408 1.97294480181399e-05 9.126792886416285e-06)
(1.000269097456841 1.55446552496941e-05 7.265084411151743e-06)
(1.000245862490816 1.215711787732214e-05 5.953099595059525e-06)
(1.000228194786331 9.335917299861815e-06 5.027919319340446e-06)
(1.000215079640532 6.913154865987537e-06 4.382911607142387e-06)
(1.000205798640593 4.763919213955304e-06 3.948514778568847e-06)
(1.000199862609596 2.79211100728631e-06 3.680434033354341e-06)
(1.000196967462545 9.199902437740003e-07 3.552478332055913e-06)
(1.000415094956393 3.394383518623922e-05 2.103874599265229e-05)
(1.000360295914377 2.708461299828612e-05 1.58063336264615e-05)
(1.00031732435194 2.168926407697226e-05 1.215182920466726e-05)
(1.000283613899948 1.738366705386803e-05 9.569869188218405e-06)
(1.000257221487291 1.388477035972723e-05 7.729213500862827e-06)
(1.00023668932224 1.097856041864612e-05 6.410808956190632e-06)
(1.000220931702744 8.503830352313724e-06 5.468467264774851e-06)
(1.00020914911496 6.338487456025108e-06 4.804306220664551e-06)
(1.000200765316737 4.38864072085805e-06 4.353253484708683e-06)
(1.000195382602188 2.580061211712152e-06 4.073241346345755e-06)
(1.000192751390497 8.514019942655814e-07 3.939118221552364e-06)
(1.000376897087814 2.774630601808543e-05 1.995301537536514e-05)
(1.000332201124996 2.271198230762369e-05 1.536600430236748e-05)
(1.000296394244041 1.857532906176821e-05 1.206429423635356e-05)
(1.000267800363985 1.5148881752266e-05 9.672360299321882e-06)
(1.000245082260812 1.227277143977098e-05 7.931171292810659e-06)
(1.00022719411067 9.815630707941662e-06 6.662073598144225e-06)
(1.000213331113446 7.672039468059453e-06 5.741830859421489e-06)
(1.000202885154038 5.758112019535613e-06 5.085704112078259e-06)
(1.000195409078991 4.006744876961851e-06 4.636136176580131e-06)
(1.000190589600534 2.363185200746309e-06 4.355287888163867e-06)
(1.000188228039012 7.810770087489262e-07 4.220259579830505e-06)
(1.000341910656835 2.254416439039138e-05 1.839133230532406e-05)
(1.000305864021558 1.891415181923692e-05 1.451273756132359e-05)
(1.000276379234864 1.57922756471622e-05 1.163562491256528e-05)
(1.000252416096421 1.310293257558209e-05 9.497423672568949e-06)
(1.000233094558138 1.076697341924461e-05 7.907085595593348e-06)
(1.000217694044584 8.711029258320181e-06 6.726882431758371e-06)
(1.000205639701284 6.871161954832108e-06 5.858305110881677e-06)
(1.000196484711176 5.193303671527064e-06 5.231595878398044e-06)
(1.000189893262087 3.632138201026296e-06 4.798243794125849e-06)
(1.000185626196934 2.149331882797191e-06 4.525770691543572e-06)
(1.000183530113385 7.115512483177372e-07 4.394263342983273e-06)
(1.000310707296324 1.830458062478e-05 1.660197940333659e-05)
(1.000281844407919 1.571499965004786e-05 1.340820516202514e-05)
(1.00025776610758 1.338089682041676e-05 1.096856798429926e-05)
(1.000237863344464 1.128718032153837e-05 9.109450800479527e-06)
(1.000221583783665 9.403282299456683e-06 7.696906381710873e-06)
(1.000208451156708 7.693679486352578e-06 6.629694479632791e-06)
(1.00019807008749 6.123349820963339e-06 5.832557876712882e-06)
(1.000190123635927 4.660191371898853e-06 5.250510943226865e-06)
(1.000184367894386 3.275711645089527e-06 4.844349114552013e-06)
(1.000180626074507 1.944776873415524e-06 4.587316348641307e-06)
(1.000178783388599 6.448729690550029e-07 4.462782086563198e-06)
(1.000680586058488 0.0001084931004195066 2.791904762304227e-05)
(1.000713378844226 0.0001248577842727958 4.195646792430532e-05)
(1.000601096658505 6.587014622817995e-05 3.066386626849142e-05)
(1.000541763074556 5.308949172254141e-05 3.017131819053749e-05)
(1.000485049285572 4.282632230162749e-05 2.861035675244107e-05)
(1.000432521272095 3.389216846051647e-05 2.63725830016045e-05)
(1.000385691774742 2.673649551240583e-05 2.362888621429198e-05)
(1.000344975606456 2.113076648904306e-05 2.076881981093429e-05)
(1.00086975937385 0.0001749377758394474 4.356364603522598e-05)
(1.000858053564427 0.0001657245413220423 6.96054493009237e-05)
(1.000811578571262 0.0001407941232578542 7.238970008944554e-05)
(1.0007141680648 0.0001120017861835431 6.855740676802501e-05)
(1.000573286541142 5.410128485614191e-05 4.039650362819286e-05)
(1.000500592669903 4.125225977169127e-05 3.537407757892171e-05)
(1.000437780424873 3.142549099520876e-05 3.062413843467961e-05)
(1.000384693678301 2.407315627507095e-05 2.610735528278086e-05)
(1.001946236479937 0.0006636081054665343 0.0002188585381576529)
(1.001108801927599 0.0002985701279384318 7.660795523803789e-05)
(1.001681026926926 0.0005075915580036205 0.0002455474675978555)
(1.000933883572938 0.0001993118477798466 9.286477030197246e-05)
(1.001407686447425 0.0003666505731584735 0.0002332795260068261)
(1.000899460865287 0.0001549626820335381 0.0001196133785765318)
(1.001159318224108 0.0002555429819846674 0.0002022204317626139)
(1.000735882428877 0.0001122963178553122 7.929828603673397e-05)
(1.000480873367439 2.984877670220345e-05 4.133966843754713e-05)
(1.00042987369628 2.697215423974933e-05 3.284294055922293e-05)
(1.000947431666999 0.0001708148604795731 0.0001620903279267224)
(1.000683595323721 7.916421443131007e-05 7.73259504577788e-05)
(1.000746931140023 9.301381473353523e-05 0.0001045200459748022)
(1.000582956113236 4.991094564334753e-05 4.797672215759572e-05)
(1.000570690623142 4.124274180086288e-05 5.283345759050978e-05)
(1.000498849601982 3.65033858723448e-05 3.988948631235182e-05)
(1.000604309350494 1.250392335519099e-05 7.127137094088116e-05)
(1.000570335869219 1.991455575262947e-05 6.347219622089494e-05)
(1.000530300225953 2.280407504408151e-05 5.323606675368356e-05)
(1.000490100520212 2.237055000498954e-05 4.119050258306879e-05)
(1.000731115576944 2.47697032578214e-05 0.0001333257339378056)
(1.00077852133978 4.884695615524125e-05 0.0001400382658538654)
(1.000714551394036 5.597186778174378e-05 0.0001247241335232758)
(1.000687806756362 5.184497978832982e-05 0.0001326101998304666)
(1.000536304434835 4.259029473616194e-05 4.41002222802143e-05)
(1.002355628375207 0.0002653192071444099 0.000861696580007828)
(1.002049558728345 0.0003071723112175673 0.0006736183533365248)
(1.001724769446023 0.0003001115190524336 0.0004950199022068327)
(1.001422225276193 0.0002650302252542913 0.0003495716993682116)
(1.000995724164594 0.0001847945920950066 0.0001809300822031021)
(1.001698995691528 2.071519844121195e-05 7.688591464565364e-05)
(1.001449860734172 0.0001658260215441448 0.0004184010958919294)
(1.001267030843559 0.000172208753168827 0.000327669187627691)
(1.001086500986878 0.0001625657780906879 0.0002476083083666219)
(1.000810143023902 0.0001125615811598061 0.0001177272015809415)
(1.000924037504165 5.460630902607694e-05 0.0002187198194030332)
(1.000859124740627 8.002523250170212e-05 0.0001715070249475892)
(1.000806703531903 6.777840478976349e-05 0.0001487537083966141)
(1.000718279742293 6.856556291522697e-05 0.000120091001875943)
(1.000709160654439 6.847682522184416e-05 0.0001142569485219185)
(1.021398716313082 0.01082292623297706 0.01280398795279477)
(1.014029909101817 0.00688060272684197 0.005720316132108967)
(1.007055441222986 0.003850958373059861 0.002324433633301504)
(1.003155119218542 0.001297580597731258 0.0005262280840597738)
(1.002131192676374 0.0007534728454485703 0.000258130300708745)
(1.01069722344219 0.004248678089757377 0.007919370422476146)
(1.007482483304351 0.003457269830383736 0.004146114520853801)
(1.004990090444517 0.002023294545056177 0.001768245525542311)
(1.003386486336081 0.001268980108103344 0.000873656974491203)
(1.001822560881873 0.0005661895337210244 0.00028445523972028)
(1.005956033847722 0.001345145945098476 0.003130003296606317)
(1.004633482623241 0.001302794649423905 0.001999251042722918)
(1.003454187258334 0.001038053321330849 0.001181108893555796)
(1.00253963347177 0.0007536510170297955 0.00067965558302429)
(1.001509883739618 0.000401394066923704 0.0002652048860295354)
(1.002610571284009 0.0003177058508284057 0.0009943251997308784)
(1.00224891617978 0.0003620308608707204 0.0007641371514831951)
(1.001871233195063 0.0003472183949385444 0.0005506576825423843)
(1.001525504593497 0.000300874849308871 0.0003812651117710912)
(1.001230462768329 0.0002754700079016723 0.0002256706537532277)
(1.042665780939222 0.01139466982304639 0.02185100002344024)
(1.032835965622491 0.01144748112767206 0.01306412105271523)
(1.027558515292964 0.01031243549173981 0.008841255087803229)
(1.000591099317243 6.908976562609393e-05 9.7938439919697e-06)
(1.000482304353052 4.976468599934609e-05 6.609416624461158e-06)
(1.000697630229606 0.0001164377446836414 2.312022559430224e-05)
(0.9996935371796811 0.001398622005653072 0.001170185600551901)
(1.002200764300199 0.0007990657370176884 0.0002416668988690878)
(1.002005417887983 0.0007010167815143694 0.0002040920569714924)
(1.001130203990173 0.0003095986161804562 7.065562001687196e-05)
(1.015879535772247 0.008709866986863388 0.006388494213299346)
(1.007573595218834 0.004468279738258507 0.002388287158693336)
(1.003294272992196 0.001404397795834815 0.0005028518059564185)
(1.040229179264548 0.0181310030701076 0.01514147839896875)
(1.035290937022133 0.01627465920884443 0.01070406950257324)
(1.06328326405891 0.00196897909476085 0.002132759346413392)
(1.050866017785774 0.02525232705055464 0.02733276292790528)
(1.047675173500017 0.02822269036596927 0.03064810796825955)
(1.080305087562973 0.03995483644520169 0.06396072252822918)
(1.124373335946657 0.003788009095531636 0.00597881127871588)
(1.06523938415128 0.04572402194752712 0.07236849506841557)
(1.000665676200847 -2.076484687316929e-05 0.0001300014938563034)
(1.000499679485995 6.04083300116864e-06 5.004615534281596e-05)
(1.000416051611336 4.364539169378569e-06 3.78555523015841e-05)
(1.000354054996386 3.227262773424048e-06 2.852042016931455e-05)
(1.000308232339744 2.452546954600803e-06 2.154426744577886e-05)
(1.000274315581768 1.926848937283327e-06 1.626402775337303e-05)
(1.000249326115726 1.570392152615018e-06 1.214393029306307e-05)
(1.000231232690667 1.330362785055498e-06 8.802741165435868e-06)
(1.000218667348871 1.173140484831033e-06 5.974146148314741e-06)
(1.000210735410048 1.078037024728349e-06 3.467206217395803e-06)
(1.000206896651231 1.033186725365298e-06 1.136960583478755e-06)
(1.000748822189482 1.894261381013392e-05 0.0001413968897423202)
(1.002422630803347 0.0002455568361644558 0.0009052863656753746)
(1.001737112119231 1.895168339077715e-05 7.981347766460496e-05)
(1.000932280653796 3.893284281928937e-05 0.0002078144185550581)
(1.032367778415202 0.01273306975362149 0.02828682086802393)
(1.011099727609391 0.004248641138609629 0.008489919661873084)
(1.006278492150787 0.001296783144784174 0.003402886768519311)
(1.002690442303535 0.0002950058253075582 0.001048351051957323)
(1.000886861301961 6.288040870041472e-05 1.385320712393206e-05)
(1.001033188401213 0.0002729091449370407 6.468811290913887e-05)
(1.001070975429325 4.376239112464295e-05 1.038529862125634e-05)
(1.000967380513208 0.0002342890403928041 8.217575762969266e-05)
(1.001003202008529 3.913004055514813e-05 1.343644068708917e-05)
(1.000837525421161 0.000166163726493749 5.010754401924093e-05)
(1.000854547041245 5.860669864663669e-05 1.751620684015635e-05)
(1.002070743098155 0.0001004889460879744 3.321525540460843e-05)
(1.001506488122279 0.0004623347375196687 0.0001371207508544637)
(1.001584260588444 7.035601933119005e-05 2.094865810813843e-05)
(1.001749860364293 0.0005462576827072261 0.0002432972135525702)
(1.001852017391869 8.284184324671372e-05 3.69870612137516e-05)
(1.001379969807954 0.0003933527181513337 0.0001576958235803368)
(1.001446020805076 6.005150732095494e-05 2.418500665440962e-05)
(1.001152693364412 4.63121493727162e-05 1.192069419003613e-05)
(1.001390341849156 0.0004123836443018506 0.0001183000293776054)
(1.001457399289805 6.293084289666132e-05 1.81351411760354e-05)
(1.001034328925592 0.0002601396805704307 9.326421051988925e-05)
(1.001074350106052 4.085083845446935e-05 1.471620658305584e-05)
(1.001280268624926 0.0003540823339691323 0.0001374642791226244)
(1.00133786536054 5.422752234509174e-05 2.116945067001391e-05)
(1.001775830871584 7.704380293424264e-05 3.736346829342708e-05)
(1.0014746034203 0.000399298882771823 0.0002388862996901908)
(1.001548865423376 6.085387522212106e-05 3.650612779964494e-05)
(1.001334655000956 0.000369922821561581 0.0001610623926700495)
(1.001396720897775 5.65585903693486e-05 2.474379141062435e-05)
(1.001195632601428 0.000301698249446402 0.0001625007371579905)
(1.001246217050733 4.643904576531423e-05 2.516127083762719e-05)
(1.000955686362061 4.360006007158706e-05 1.660558760598235e-05)
(1.001006658371466 0.000247075434972755 9.647972168031645e-05)
(1.001045327018198 3.930034482847976e-05 1.559482047560421e-05)
(1.001240578970523 0.0003341801506965629 0.0001408637810780367)