/*--------------------------------*- C++ -*----------------------------------*\
  =========                 |
  \\      /  F ield         | OpenFOAM: The Open Source CFD Toolbox
   \\    /   O peration     | Website:  https://openfoam.org
    \\  /    A nd           | Version:  7
     \\/     M anipulation  |
\*---------------------------------------------------------------------------*/
FoamFile
{
    version     2.0;
    format      ascii;
    class       volVectorField;
    location    "0";
    object      grad(Phi);
}
// * * * * * * * * * * * * * * * * * * * * * * * * * * * * * * * * * * * * * //

dimensions      [0 1 -1 0 0 0 0];

internalField   nonuniform List<vector> 
12675
(
(-0.9990436930140311 6.368244377883243e-05 4.711238862071566e-05)
(-0.9992576179341098 4.440850935735125e-05 3.201765114179098e-05)
(-0.99941609420153 3.223013542206805e-05 2.318757042233516e-05)
(-0.9995316615572987 2.371652475023764e-05 1.703405172911797e-05)
(-0.9996169185079119 1.758995306607627e-05 1.261665465900655e-05)
(-0.9996801229070602 1.305136068620559e-05 9.351109854449099e-06)
(-0.9997267907212604 9.583953300375898e-06 6.860900883772814e-06)
(-0.9997606442524383 6.841985788870684e-06 4.894824241685596e-06)
(-0.9997841886380696 4.58489133291724e-06 3.278549605854372e-06)
(-0.9997990658963306 2.636822343718239e-06 1.884963613074439e-06)
(-0.9998068608818539 8.60565485794376e-07 6.150946753738184e-07)
(-0.9990869890165086 0.0001835690162452166 4.538405517675249e-05)
(-0.9992870259953952 0.0001289761151001245 3.105498679857729e-05)
(-0.9994362622215793 9.3993937826899e-05 2.257886246944959e-05)
(-0.9995459287153365 6.938683413956966e-05 1.663536134082733e-05)
(-0.9996273108173674 5.159406288389887e-05 1.235034493739065e-05)
(-0.9996879237108033 3.835926728154832e-05 9.171158403193065e-06)
(-0.9997328409463758 2.821270330210288e-05 6.739035804396897e-06)
(-0.9997655153289347 2.016515051828194e-05 4.813451249448235e-06)
(-0.9997882863105519 1.35245198653941e-05 3.226753908192425e-06)
(-0.999802695158767 7.782434230556691e-06 1.856197781127958e-06)
(-0.9998102511741543 2.540606026412664e-06 6.058709212183876e-07)
(-0.9990932011510038 6.099628588050738e-05 0.0001986398543130494)
(-0.9992916945100007 4.287838026520229e-05 0.0001388354814487996)
(-0.9994393722934749 3.126249467573476e-05 0.0001010700662330599)
(-0.9995480842300026 2.308244579405777e-05 7.453582257992205e-05)
(-0.9996288545068958 1.716615807108134e-05 5.537289363722402e-05)
(-0.9996890648816754 1.276482850531845e-05 4.113724317451452e-05)
(-0.999733713879266 9.389820290195728e-06 3.023701907316259e-05)
(-0.9997662096910309 6.712313613650926e-06 2.16015798401456e-05)
(-0.9997888646715462 4.502333638048479e-06 1.448279850641875e-05)
(-0.9998032037638118 2.590966221997672e-06 8.331936866525985e-06)
(-0.9998107243526233 8.458608350489597e-07 2.719683976635793e-06)
(-0.999133518672958 0.0001761493703414154 0.0001917088158478711)
(-0.9993194917860592 0.0001246077188550459 0.0001347808294498203)
(-0.9994586641397014 9.118605562391249e-05 9.845184610656153e-05)
(-0.9995618194479317 6.753687869125153e-05 7.280601499502648e-05)
(-0.9996389069897883 5.035471734556743e-05 5.421220356131137e-05)
(-0.9996966412803492 3.752000396048642e-05 4.035048808360088e-05)
(-0.9997396109557043 2.764331338466608e-05 2.970291492526478e-05)
(-0.9997709719097376 1.978438208030465e-05 2.124425298055e-05)
(-0.9997928806150475 1.32818738967769e-05 1.425502360184979e-05)
(-0.9998067668876935 7.647571117912367e-06 8.205315911953774e-06)
(-0.9998140561922187 2.497345316910556e-06 2.679063516450645e-06)
(-0.9986416825809801 5.150140616360861e-05 0.0001666932181802007)
(-0.9987105330491798 0.0002516981588128616 0.0001668184654128935)
(-0.9988139357628995 0.0004020134856475074 0.000147037546261514)
(-0.9988846996532603 0.0002741155119252764 0.000302627699291251)
(-0.9988561735583643 0.0003957004758976737 0.0002393886031149787)
(-0.9971830311025219 6.389597985482991e-05 4.712959574077969e-05)
(-0.9984625283399503 2.483306274964501e-05 0.0002284354190095951)
(-0.997433945086769 0.0005335549393838448 0.0004586404863154557)
(-0.9985278077019867 0.0002979299161699029 0.0002304399673007218)
(-0.9977655877777304 0.0009042367137833152 0.0004105819904313628)
(-0.9985906624256652 0.0003859942257194369 0.0002104278240151903)
(-0.9973607008007409 6.063138789121136e-05 0.0006034729842344313)
(-0.9974991378815377 0.0005227650635192758 0.0005776615998644373)
(-0.9985721583078101 0.0003036911419378109 0.0003380652563068722)
(-0.9978208160384697 0.0008867983508764602 0.0005176047342824614)
(-0.9986872096917873 0.0004827438730438272 0.0002948486359372798)
(-0.9934241456166992 0.004206795367145475 0.001997832720010229)
(-0.9975774007032323 0.001010417579794771 0.0004597489079619768)
(-0.9937954391516397 0.004028017616917907 0.002456076960774386)
(-0.9976407883897522 0.0009897551044592569 0.0005788729835680328)
(-0.9890117572371808 0.0003647468407052095 0.0002867924417380997)
(-0.9938898781439341 0.0001790571510590862 0.001427646915326097)
(-0.9969051461365355 7.214036123755073e-05 5.334541903347465e-05)
(-0.9911184268616746 0.002797821524207862 0.002539004938802116)
(-0.9948967120936181 0.002332936999344973 0.0001174266867573934)
(-0.9971963447094442 0.0005999437851236516 0.0005168853296469328)
(-0.9906048811916323 0.0003246255321580905 0.003420447004116049)
(-0.9941558943786877 0.0001728985944924946 0.001770698325508573)
(-0.997112076650433 6.825064223319057e-05 0.0006808579505476161)
(-0.9916429706471865 0.002668933217906318 0.003108813246649315)
(-0.9954150573696804 0.002147512007730904 0.001456333044047816)
(-0.9972717782384308 0.0005871214381568854 0.0006501924764192263)
(-0.9803947673904815 0.01998955840106106 0.0005173397311580898)
(-0.9927318510317458 0.004896533864229178 0.002341522590985702)
(-0.9860778176457597 0.01586096772304569 0.01031809422267851)
(-0.9931798120587263 0.004671240618159658 0.002867078574517714)
(-0.979600691184368 0.04187810700145695 0.0286267885727969)
(-0.983744732902516 0.04003847968324557 0.02514929646444636)
(-0.983072983462726 0.03804361302710788 0.02928338841814381)
(-0.9319855777587456 0.001106413774034065 0.06391052958087508)
(-0.9533334221923166 0.001081573106234655 0.001037429994213101)
(-0.9873744266227003 0.0004500730502053814 0.0003654315400478155)
(-0.9791299153165417 0.03772368742153618 0.02547825850331707)
(-0.9782218047065991 0.02015625036328255 0.000560467551414746)
(-0.9899434464066947 0.003311062960140436 0.003031966885090919)
(-0.9679611248977837 0.0008325472773830331 0.01960277965568505)
(-0.9893167265711645 0.0003855872281011463 0.004101516243816163)
(-0.9845995864781192 0.01590814866028148 0.01110101976467573)
(-0.9905835466678984 0.003143772175231017 0.00369467190313939)
(-0.9972913112029879 6.190820409065436e-05 0.0004793392747833213)
(-0.9973779463682915 0.0004221550225999855 0.0004667628634848286)
(-0.9972737097784377 0.0004355716953532694 4.587762613883294e-05)
(-0.9979133736254486 4.413183310757133e-05 0.0003395329545052382)
(-0.9978435414199396 4.533504558423825e-05 3.321078275149362e-05)
(-0.9979023777021846 0.0003099828681658821 3.24527853672737e-05)
(-0.9979696888837212 0.0003014816104141059 0.0003315232600736658)
(-0.9980792907627465 3.974064891182245e-05 0.000304798398832153)
(-0.998423171239459 2.398033549942414e-05 1.645157929348653e-05)
(-0.9984894172739268 0.0002137777280446657 0.0002311722070698144)
(-0.9984549485447557 0.0002102552407675674 1.686843064000116e-05)
(-0.9980184339799295 4.071577056772816e-05 2.974325875138065e-05)
(-0.9980696059419434 0.0002786855028975698 2.912628434859837e-05)
(-0.9981274307274913 0.000271427467770134 0.000297930058119244)
(-0.9973322942980675 0.000550369634076184 4.506839164631494e-05)
(-0.9976692776031884 0.0008245681108931595 0.0004245730043059779)
(-0.9975785497748066 0.0008495766604163719 4.167191030952537e-05)
(-0.9979405681879941 0.0003924628088278473 3.194831426047434e-05)
(-0.9981042556798352 0.0006113253491526809 2.974409845216423e-05)
(-0.9980065572959539 0.0003816235957998516 0.0003261235290062315)
(-0.99816776836194 0.0005961424951386523 0.0003047735695367379)
(-0.9984884219386032 0.0002605158213565207 1.601536336159687e-05)
(-0.9975375477147933 0.001348995089145014 0.001097282677953359)
(-0.9984630831490833 0.0005345745995927823 1.312534133262774e-05)
(-0.9981027705203936 0.0003530340324895972 2.870609488242206e-05)
(-0.9982458027618758 0.0005499575878786796 2.664405611757683e-05)
(-0.9981589993847344 0.0003434329067968249 0.0002927569011065878)
(-0.998309660230541 0.0005364233084748096 0.0002727603996194814)
(-0.9976794090163996 0.0009312851576672988 4.028133957871988e-05)
(-0.9981728060660466 0.0006734174834613988 2.889465751160208e-05)
(-0.9982321209648825 0.0006581213670386975 0.000296854937358086)
(-0.9986014096290501 0.0004739850873430756 4.338563562694888e-05)
(-0.9983062376329048 0.0006058730666188418 2.588104710589809e-05)
(-0.998359335834889 0.000595147405922838 0.0002665831385208886)
(-0.9974447819271525 0.0004135425297245264 0.0005877888732111762)
(-0.9979582960616918 4.333158377205619e-05 0.0004287712105483886)
(-0.9980133476008493 0.000295735578723985 0.0004185590245068607)
(-0.998501180718097 2.356873678492328e-05 0.0002805877758676464)
(-0.9981183506372664 3.907431459556721e-05 0.0003853367717423178)
(-0.9985338941128997 0.0002115452803187781 0.0003179940053024256)
(-0.9981649972896491 0.0002658947193514149 0.0003762245151478026)
(-0.9977274150486841 0.0008084819172893274 0.0005351268266123815)
(-0.9980499209948201 0.0003743781393503447 0.0004117123371702389)
(-0.9982071492757529 0.0005867851572324195 0.0003860743326005185)
(-0.9985218844669225 0.0003168705484813054 0.0002476733994578271)
(-0.9981971087091144 0.0003360077283677865 0.0003691430705275961)
(-0.9983424912467402 0.0005279192306335729 0.00034746536633718)
(-0.9982703124377864 0.0006483458259537048 0.0003761263710401581)
(-0.998398264479965 0.0005879172627979507 0.0003395123265582551)
(-0.9928156037905502 0.004497166249340956 0.0002037750041478478)
(-0.994740337273825 0.002881840927889335 0.0001283560769657386)
(-0.9950902864875623 0.002733691530748328 0.001276754584111286)
(-0.9952377207594331 0.002506077001180114 0.0001110979117875533)
(-0.9955318658274123 0.002386050311763967 0.001109387731241366)
(-0.9964178831784193 0.001686410640108813 7.39067726220585e-05)
(-0.996597693828831 0.001620244737427896 0.0007450272093920982)
(-0.9974783634769222 0.001042543763291474 4.519358539362039e-05)
(-0.9967284905445581 0.00148829975326672 6.502093439211521e-05)
(-0.9968824604602459 0.001433448813602268 0.0006571438332272966)
(-0.9953079760280923 0.002640840967902473 0.001584438722510178)
(-0.9957157811740976 0.00231049211319159 0.001380175079946648)
(-0.9967115183451198 0.001578144563829661 0.0009325590156639079)
(-0.9969802509487536 0.001398445577357031 0.0008239297162404575)
(-0.989997103594738 0.0003405423426903 0.002795980973981216)
(-0.9906881286840798 0.002257417258008242 0.002639318249024155)
(-0.9897638184010091 0.002426448757432118 0.000271183175857003)
(-0.9931328652585654 0.0002085423250646876 0.001672751934129456)
(-0.9926117369671904 0.0002207784211381408 0.0001689877914631755)
(-0.9930253998560997 0.001477712618502553 0.0001612484017704434)
(-0.9935133283933362 0.001396174843509214 0.001596822194059032)
(-0.9955997330798633 0.0001166323153666147 0.0009168130661993357)
(-0.9934627335864296 0.0001888323256270011 0.0001436151429988426)
(-0.9953550185188598 0.0001217651820439864 9.124231177708957e-05)
(-0.993804912875427 0.001267111073004791 0.0001374387231626306)
(-0.9955552699805359 0.000822951719613866 8.800551148698681e-05)
(-0.9942061168796316 0.00120213197175434 0.001367069574433072)
(-0.9957874915960904 0.0007886764132327307 0.0008847756365029645)
(-0.9970313901139517 6.976979327952494e-05 0.0005414957213892581)
(-0.997131674266126 0.0004751336818496362 0.0005265386807897409)
(-0.9970104778816804 0.0004910994876457135 5.185222095138448e-05)
(-0.9960294477286902 0.0001019860740952191 0.0007986914236987816)
(-0.9958236987992037 0.0001061775511273411 7.925392693041107e-05)
(-0.9959930126162286 0.0007190857250559188 7.661193879569345e-05)
(-0.9961888669006801 0.0006910308478024359 0.0007724509437941536)
(-0.9902459811626106 0.003008152915055477 0.0002608717068836977)
(-0.9927939748078055 0.00397609307437639 0.002147102552703626)
(-0.9921150559492311 0.004257452262743375 0.0002195078911807259)
(-0.9943353663992331 0.002692524330524391 0.0001362061331029813)
(-0.9947171567189579 0.002551353131406914 0.001353221667284843)
(-0.9932872910672432 0.001843902405447148 0.0001562918452536351)
(-0.9937537125330285 0.00174293055303231 0.001548531722844416)
(-0.9952157853279862 0.002219100252677973 0.001171377537188158)
(-0.99620849455903 0.001555563781186956 7.735391992235422e-05)
(-0.9964007838768234 0.001493558036366631 0.0007792367957932825)
(-0.9940219206677426 0.001584100860591381 0.0001334930283445332)
(-0.9956832110273308 0.001033841343214624 8.593066787517696e-05)
(-0.9944065763515045 0.001503531997957585 0.001328479616954728)
(-0.9959075033467953 0.0009911238114886953 0.0008642341800370336)
(-0.9970783832406913 0.0006199453546975784 5.088858236956554e-05)
(-0.9974670275020635 0.0009231381850282373 0.00047636825312456)
(-0.9973625362034469 0.0009528853425121625 4.68476360819004e-05)
(-0.9965489745450304 0.001369299578596584 6.786902648500357e-05)
(-0.9967129826229403 0.001318072586829444 0.0006855091720116989)
(-0.996101447795164 0.0009045989617352967 7.491512462746305e-05)
(-0.9962910089678465 0.0008695765290876533 0.0007555915925226099)
(-0.9912458931345922 0.002151670243873768 0.003228722847688217)
(-0.9934559399777957 0.000200824114423871 0.002068705415097716)
(-0.9938153897826459 0.001345121845476362 0.001975819854987909)
(-0.9957541181854165 0.0001133754023395056 0.001145165290105914)
(-0.9944559294584282 0.001161313008849188 0.001696400160525398)
(-0.9959340685617996 0.0007669230924961828 0.001105551868342293)
(-0.9972091625144419 0.0004649006475678344 0.0006622227839945721)
(-0.9961597280816094 9.93188517138106e-05 0.0009995284006277848)
(-0.9963129410197957 0.0006731716977079301 0.0009670058520041313)
(-0.9932066269291632 0.003803200099787321 0.002636524394489644)
(-0.9949543304497939 0.002462980987474055 0.0016780632655015)
(-0.9940425631573161 0.001679809846745916 0.001916836407954662)
(-0.9965224138603104 0.001454132972231577 0.0009749412015273699)
(-0.9946461835074327 0.00145294473909574 0.001649090976074283)
(-0.9960491281384132 0.0009640050437717741 0.00108014585805583)
(-0.9975338777340886 0.000904026763102202 0.0005996409307527177)
(-0.9968170769928971 0.001285403162696652 0.0008591530580418012)
(-0.9964111363847973 0.0008472750924108012 0.0009461038323149799)
(-0.9828997918045244 0.03630330654812965 0.02258381340986435)
(-0.9697151691641581 0.05053817601422205 0.001419792378624973)
(-0.979146657322674 0.02224656439590034 0.0005813815139710486)
(-0.9843891953924144 0.01831821482517748 0.01063880333672062)
(-0.9850010108736479 0.01666299679328895 0.009593684384229185)
(-0.9872367641650605 0.0100144323931898 0.000238819188007229)
(-0.9891813854345096 0.008941675445642791 0.004916074310855675)
(-0.9919925478312626 0.005265857612896348 0.0002400898526276948)
(-0.9879662228062898 0.009146190717344902 0.0002214584343299221)
(-0.9900664228292861 0.007913593200204534 0.004006323129038561)
(-0.9854788403755064 0.03333635310463785 0.02338341402812576)
(-0.9855965629870643 0.01738236603749238 0.01140357884092161)
(-0.9898703178951213 0.008648844818990057 0.005358908739356688)
(-0.9911525742056521 0.007582103120870842 0.004796638356206416)
(-0.9607987346642954 0.06115101420798955 0.001893146412326664)
(-0.9659561885988307 0.05604313475107627 0.01820221030325197)
(-0.9406286404801436 0.05838547378635094 0.0284897658726175)
(-0.9301708481942338 0.06453394296160304 0.001153125222706407)
(-0.9688778892116718 0.05746614678648156 0.001626131645200428)
(-0.9729043861679931 0.05289017954520383 0.01571068736805932)
(-0.9881243541040241 0.0418609363422403 0.009891017863614873)
(-0.986316834538766 0.04486254338684274 0.001010177106143894)
(-0.9690165427966699 0.05296061042456781 0.0220443355800967)
(-0.9444892056901111 0.05638250910852327 0.03078063360023037)
(-0.9647825469303495 0.04422750016012654 0.04049222905287088)
(-0.9932209204624068 0.03306215815991745 0.01664934704266148)
(-0.975304374941839 0.05012294160356726 0.01910031876922162)
(-0.9892173156635754 0.04002066918014785 0.01214887889690749)
(-0.9919060096962425 0.02752155504456182 0.02800066914008443)
(-0.9707531691750554 0.03983495060765573 0.04086713036713074)
(-0.9853422861074882 0.02810154456209073 0.03747474466736678)
(-0.9460551596489772 0.03114214818468152 0.05264015794428391)
(-0.8672194775172717 0.001612073003230244 0.002307988304798608)
(-0.894323922615746 0.04701321095308526 0.001885955119789152)
(-0.9478535882848191 0.001226025318020388 0.001209389963194591)
(-0.956262394053268 0.0165083390690504 0.001044457449619789)
(-0.9620814424860135 0.000987277676358199 0.0211290129104649)
(-0.9680881995240335 0.01325662810644322 0.01834949195295089)
(-0.9766123687940178 0.0004737174943718813 0.0004013052883948301)
(-0.9605987125381366 0.01454736063155544 0.000900496239992873)
(-0.9793763926439428 0.006486422104985799 0.0003618733073809784)
(-0.9652590064252927 0.0008808087067125564 0.0184365370943603)
(-0.9805460233634129 0.0004131439448734583 0.007786528205889543)
(-0.9705554259335648 0.01184663720266586 0.0161025691086156)
(-0.9827827935062871 0.005660136045728454 0.007037967996975442)
(-0.9885511088905706 0.0004064032820088925 0.003369303339194623)
(-0.9894096431221273 0.00268150406580662 0.003164757811822857)
(-0.9882407534859513 0.002903167589264025 0.0003279243067820091)
(-0.9785790382739772 0.0004244545328397544 0.0003555549853004989)
(-0.9810138262716114 0.005839963604137055 0.0003224407301318624)
(-0.9819951578744545 0.0003735373572761917 0.006968715679384093)
(-0.9839749667462711 0.005126537548510618 0.006319626801779277)
(-0.94788245406273 0.03261088527213879 0.05016144583942868)
(-0.96283570387763 0.05325588982661202 0.001630759858571585)
(-0.9766683811716428 0.02251493020329125 0.0006329031818533754)
(-0.982600217215989 0.01845112966016806 0.01150907934603068)
(-0.9380893939962927 0.05297713991895077 0.02699860846493843)
(-0.9584887222557429 0.01808808015066111 0.001000269278451839)
(-0.9696672985080742 0.01453781175423271 0.01761649091119863)
(-0.9833958682834514 0.01673102647463328 0.01033621331291365)
(-0.9863076151366975 0.009912444277148798 0.0002558469955112751)
(-0.9884616496005175 0.008754868418982273 0.005125328389012767)
(-0.962513919821306 0.01595017284542178 0.0008640545380276619)
(-0.9801025465300301 0.007157948337592651 0.0003512653680250565)
(-0.9719458599573221 0.01300199764341833 0.01548752137469973)
(-0.9833783272214164 0.006252260384036896 0.006839618928594709)
(-0.9888440010487106 0.00358834615255161 0.0003142993688008777)
(-0.991975243536331 0.004651741690594161 0.002530711142680884)
(-0.991140102599761 0.005012099629197358 0.000260475428353056)
(-0.9871198415465445 0.009048385720040202 0.0002341773660947151)
(-0.9882316387045365 0.007829181377031333 0.004541681506794728)
(-0.981652080362675 0.006450556112445391 0.000313397710650142)
(-0.9845109880807519 0.005666118694493952 0.006143755739054166)
(-0.9374139679141945 0.001056198514874491 0.06397546936975837)
(-0.9737981635249419 0.01972648830271769 0.04686009139254015)
(-0.9652499618528847 0.0009299358232674218 0.02236250262283443)
(-0.9707261404588484 0.01249449733738533 0.01946214938631755)
(-0.9815141546620401 0.0003975366797174151 0.008468164641074583)
(-0.9728176525817616 0.01120562957837757 0.01715574871721445)
(-0.983630914503397 0.005451710063716134 0.007664390131214345)
(-0.9901096578672743 0.002541781229532987 0.00384970206444544)
(-0.9828408380747716 0.0003600964782934319 0.007595724463023103)
(-0.9847262048463422 0.004941991326551087 0.006896361567413349)
(-0.9822591004215585 0.0345298441245979 0.02626583904876846)
(-0.9756346533576846 0.02158133325596759 0.04456043510923162)
(-0.9839588356457923 0.01748695771645478 0.01231675398043329)
(-0.9721646043119621 0.01370591775166202 0.01869763698248172)
(-0.9888718852790422 0.008504842549609948 0.005656305954392798)
(-0.9740919706887927 0.01230220097426836 0.01651100637188265)
(-0.9841971130178745 0.006025440178142517 0.007453824772550291)
(-0.9924763227134802 0.004432213368988964 0.003094519112953555)
(-0.9895824934191916 0.007246617275195021 0.005241138515063699)
(-0.9852615024004758 0.005470811033167555 0.006716777510487221)
(-0.9445760955571921 0.03305237397302354 0.05695056531920632)
(-0.9340156610826507 0.01944587942813981 0.06561052387580299)
(-0.8924508414472966 0.02560755736561431 0.05202328866506109)
(-0.9093166209011018 0.04426895491160712 0.04493596271077186)
(-0.9466589623814858 0.03468523079129667 0.05520874491105292)
(-0.9388590553117748 0.05616718409645479 0.03266018471042224)
(-0.9589174329595457 0.04403333539604228 0.04526747530144545)
(-0.9125787662067304 0.04646161323895228 0.04358709355497562)
(-0.9763251258615395 0.02355701082219056 0.04996082917376997)
(-0.9521915933654385 0.03269562073228584 0.0552598836465938)
(-0.9665872940107595 0.03955152573118109 0.04536336992249372)
(-0.9830135507767012 0.02755558739573193 0.04073474430051743)
(-0.9295446009772581 0.001167765131880581 0.06933070069754808)
(-0.933013632692043 0.01724609474322717 0.06644037735680781)
(-0.885622724875028 0.001523704307381173 0.0549757882826036)
(-0.8909038949106067 0.02266674038285061 0.05268669367073246)
(-0.8861387802324189 0.0507975400280983 0.002100984159261593)
(-0.8652669325082054 0.02909076624686343 0.002436564645209637)
(-0.887038290656882 0.02632951240897928 0.04769626662798521)
(-0.9047084375662882 0.04560940130346995 0.04118234588370191)
(-0.9363798587849661 0.05763081866487114 0.0297594171237652)
(-0.9245349578105784 0.06408591839999499 0.001493131885166395)
(-0.8902366047962125 0.05338303078123764 0.002036344840274923)
(-0.908136641293142 0.04788095591863044 0.03993958487777183)
(-0.85699229086769 0.001720405860285788 0.002573516952108254)
(-0.8799174298825755 0.001564774443127953 0.05039964170647552)
(-0.8633830762326544 0.02571918718242406 0.00246755172234007)
(-0.8854230567089947 0.0233002202263708 0.04830436701946025)
(-0.9354685176301232 0.001113249362905927 0.06920617124431923)
(-0.9741256912955912 0.02182782344980728 0.05271203547574238)
(-0.9865545184713345 0.03651147471796792 0.02585908864795973)
(-0.9986194525379175 5.195101660771271e-05 3.833456775073005e-05)
(-0.9986602441669358 0.0001519516482985214 0.0001655583453223312)
(-0.9986377394700426 0.0001532749443155442 3.803720705339629e-05)
(-0.9987815296377575 3.400697484094871e-05 2.349500026854453e-05)
(-0.9987968194066925 3.458392556028083e-05 0.0001436233547912343)
(-0.9988076505207788 0.0001313019778469898 0.0001417623343476639)
(-0.9987924198014313 0.0001332027037721227 2.390570105736898e-05)
(-0.998680052350455 0.0002510757244904018 3.743693669477699e-05)
(-0.9988955263660194 0.0003674996042014693 0.0001901688709032826)
(-0.9987697437578351 0.0003459826140305936 3.841433630477866e-05)
(-0.9988486527776677 0.0001938906755728557 0.0001400164229663985)
(-0.9988342257649593 0.0001957362431325057 2.281928882431009e-05)
(-0.9988828076539114 0.0002786126891165662 0.0001324792472756906)
(-0.9988659381017704 0.000283004850193328 2.340220607706118e-05)
(-0.9987946856464115 0.0004087016024729923 3.335183708929208e-05)
(-0.9989527051251608 0.0003353110054218375 0.0001296600236586387)
(-0.9989395961586502 0.0003372896361931682 2.105976511682215e-05)
(-0.998689800413944 5.059793568620961e-05 0.0002722375668968538)
(-0.9987168602345297 0.0001528583556196329 0.0002736955637756874)
(-0.9988448579480794 3.2920742182466e-05 0.0002115149495879686)
(-0.9988549814759784 0.0001293742870878679 0.0002097327034042711)
(-0.9987853585857813 0.0003162964222215056 0.0002458448471222682)
(-0.9988975257327233 0.0001880999258054058 0.0002042487284038381)
(-0.998921950474652 0.0002727615421392927 0.0001992274962688464)
(-0.9989937916984044 0.0003273678808099547 0.0001900165402884067)
(-0.997458231468566 0.0001687774721103226 0.0001863244644094519)
(-0.9972014391830463 6.355863053642769e-05 0.0002109540143720115)
(-0.9971983820180117 0.0001908143944143899 4.691779728509214e-05)
(-0.9974292490081851 5.679244185223883e-05 4.179276160086368e-05)
(-0.9972166716368597 0.0001898078850004403 0.0002100077549432916)
(-0.9974424946870881 0.0001696267974930029 4.161421361508365e-05)
(-0.9974450827906427 5.650814749730866e-05 0.0001871230619591042)
(-0.9983484189699962 9.803602760499707e-05 0.0001784680468276755)
(-0.998364240941424 3.278983801198352e-05 0.00024767708396101)
(-0.9984484153575399 2.355940821739046e-05 0.0001542855391497088)
(-0.9984661074365118 9.282988162083832e-05 0.0002279998057530565)
(-0.9984524385513247 9.40603933411366e-05 0.0001546102867427738)
(-0.99836978587318 9.756952493944475e-05 0.0002473224762482575)
(-0.9983421959530608 3.291521758196214e-05 0.0001787692260945766)
(-0.997663228124721 0.0005783754952085767 0.0002898093677083688)
(-0.9973837097811251 0.000541866471047789 0.0003327460035091867)
(-0.9975020073797056 0.000638434472394294 0.0004487811936390216)
(-0.9976462266374628 0.000475882773709633 0.0004082237040861178)
(-0.9976027168839245 0.0004829434378669019 0.0002959271060481752)
(-0.9977055228639462 0.0005700408485536795 0.0003998546353039571)
(-0.9974533218361527 0.0006482683504125138 0.0003255403401049213)
(-0.998428352045561 0.0003443924451683141 0.0001792580387031775)
(-0.9985157620993689 0.000261851676940079 0.0001572396039331004)
(-0.9984950831855646 0.0003887433364473736 0.0002790141947826593)
(-0.9984221330653392 0.0002918138752232489 0.0002412841623820464)
(-0.998530454265226 0.0003304070041884234 0.0001903101316156377)
(-0.9984096065680189 0.0002893213316923495 0.0001768871944789666)
(-0.9984028162738771 0.0003404329844186125 0.0002337670272730997)
(-0.9979910915368191 0.0008878975452475311 0.0002570811174511452)
(-0.9977230156244664 0.0009176185009105874 0.0002976518278304139)
(-0.9978683591606414 0.0009742200591052058 0.0003955595527221268)
(-0.9979360978645788 0.0008113360223414473 0.0003676816216761827)
(-0.9978988751357917 0.0008225802043863951 0.0002662833155832794)
(-0.9980261937625935 0.0008758667376713992 0.0003550279297899008)
(-0.9978281758703083 0.0009884695867129834 0.0002867108746633381)
(-0.9976667478132779 0.0001574598149836413 0.0006373416319339607)
(-0.997374926607798 0.0001810746460479202 0.0006008181098693923)
(-0.99744445075594 5.908935877896899e-05 0.0007186341992195061)
(-0.9975823684867504 5.40294151135163e-05 0.0005366955438027232)
(-0.997594706858934 0.0001613727960475971 0.0005344397007001662)
(-0.9974581555434208 0.0001764747310144426 0.0007155116229566655)
(-0.9976548197691089 5.271865917349708e-05 0.0006399969683966518)
(-0.9978271578697323 0.0005462011344957922 0.0006019976106783303)
(-0.9975651893108618 0.0006256683443394473 0.0005653643512620447)
(-0.9975778269489021 0.0005097340186320202 0.0006882823393438731)
(-0.9977028417202892 0.0004667140544475282 0.000514745068273017)
(-0.9977605643787945 0.0005592413852457851 0.0005043159590587151)
(-0.997771345351031 0.0004556565929356382 0.0006142350406872485)
(-0.9976414447617209 0.0006102351227382435 0.0006738060782410945)
(-0.9978201392555943 0.0001628558161741269 0.0002046316852822782)
(-0.9985554590481928 0.0003364945501071835 0.0008032240126948959)
(-0.9985438868745699 0.0008194172727144312 0.0003856721515764019)
(-0.9984540123411219 0.0002761638227228178 0.0003041336471952357)
(-0.9974475874936586 0.001302452973833307 0.001336921174030847)
(-0.9984154395406969 0.0003205367730634282 0.0002303291212257232)
(-0.9984029842065952 0.0001982750052528259 0.000350943991323121)
(-0.9981269132939368 0.0008408475047807901 0.0005352850468439525)
(-0.9978875046963968 0.0008656090464307036 0.0006173521815069126)
(-0.9979205221477914 0.0009556324421867403 0.0004987635397597507)
(-0.9979843824209635 0.0007966480053521203 0.0004641029187543368)
(-0.9980717692259993 0.0008601152716281081 0.0004481578966799658)
(-0.9980426832932093 0.0007787197908152438 0.0005543398939363264)
(-0.997983584953564 0.0009330280167510309 0.0005950108833767967)
(-0.994359644751877 0.003893171648007493 0.001171880234984224)
(-0.9931277509709115 0.00434840384156669 0.001476660337344733)
(-0.9940612182834636 0.004358203368072391 0.001845497589499335)
(-0.9940431633221831 0.003629290388572657 0.001712974751886338)
(-0.9945794343431973 0.00377890519735005 0.001591184496825394)
(-0.9937976667872005 0.00374188613047447 0.001262661594069483)
(-0.9937981424438768 0.004500973314592424 0.001362681218301135)
(-0.9974509868633057 0.001234604808972178 0.0003596006165792943)
(-0.9975284920702188 0.001026305141141277 0.0003336163988949231)
(-0.9973692417124946 0.001132123767579708 0.0005162954222680808)
(-0.9976949145558601 0.001086403158559229 0.000441960804799762)
(-0.9976488343323638 0.001103255404380286 0.0003206388748659177)
(-0.9975039722843669 0.00121462798117404 0.0004951895087164016)
(-0.9973128397724845 0.001151023534139677 0.0003750233174307055)
(-0.9951798980242035 0.003463310857391392 0.002286314844754023)
(-0.994224873026188 0.003819248521621876 0.002841784912510521)
(-0.9943913655025747 0.004177705885633027 0.002271695812323951)
(-0.9943524284378494 0.00348650204474934 0.002113290357999223)
(-0.9948567005378454 0.003633824696512069 0.001965188561630225)
(-0.9947123593719405 0.003318913339409038 0.002455396619532517)
(-0.9947739053792818 0.003966617358911175 0.002632416669286373)
(-0.9976551818606788 0.001157324465876387 0.0007409723265243848)
(-0.9977172208327075 0.0009647273291964137 0.0006894082991095727)
(-0.9974422312372011 0.001107588968339923 0.0006492285113400945)
(-0.997754668351552 0.001064474843278059 0.000556629074154955)
(-0.9978267765432405 0.001037900698599094 0.0006631392251714921)