/*--------------------------------*- C++ -*----------------------------------*\
  =========                 |
  \\      /  F ield         | OpenFOAM: The Open Source CFD Toolbox
   \\    /   O peration     | Website:  https://openfoam.org
    \\  /    A nd           | Version:  7
     \\/     M anipulation  |
\*---------------------------------------------------------------------------*/
FoamFile
{
    version     2.0;
    format      ascii;
    class       volScalarField;
    location    "0";
    object      mag(grad(Phi));
}
// * * * * * * * * * * * * * * * * * * * * * * * * * * * * * * * * * * * * * //

dimensions      [0 1 -1 0 0 0 0];

internalField   nonuniform List<scalar> 
12675
(
0.9990436961545498
0.9992576194338461
0.999416094990213
0.9995316619838147
0.999616918742295
0.9996801230359921
0.9997267907907414
0.9997606442878327
0.9997841886539581
0.9997990659015846
0.9998068608824134
0.9990870069114949
0.9992870348012988
0.9994362668965474
0.999545931262127
0.9996273122251312
0.9996879244888178
0.9997328413671739
0.9997655155438864
0.9997882864072347
0.9998026951907791
0.9998102511775658
0.9990932227597676
0.9992917050744067
0.999439377892865
0.999548087275573
0.9996288561879368
0.9996890658095707
0.9997337143806225
0.9997662099469324
0.9997888647865817
0.9998032038018865
0.9998107243566802
0.9991335525927837
0.9993195086440088
0.9994586731484095
0.9995618243810662
0.9996389097280574
0.9996966427987661
0.9997396117791266
0.9997709723312042
0.9997928808048937
0.999806766950612
0.999814056198927
0.9986416978211929
0.9987105786982234
0.9988140274891297
0.9988847831077529
0.9988562806237077
0.9971830342633734
0.9984625547803121
0.9974341932394962
0.998527878738971
0.997766081992691
0.9985907591977508
0.9973608852153532
0.9974994421304938
0.9985722617136655
0.9978213443526119
0.9986873698907646
0.9934350615702604
0.997578018355738
0.9938066371878183
0.9976414472985895
0.989011866078228
0.9938909196255605
0.9969051501740136
0.9911256279685846
0.9948994542760395
0.9971966591424511
0.9906108395733069
0.9941574863141012
0.997112311441313
0.9916514353129839
0.9954184392264606
0.9972721630190434
0.9805986691874016
0.9927466881459963
0.9862593451108708
0.993194935402649
0.9809132393024923
0.9848803310460844
0.9842445448889769
0.9341749820526399
0.9533346001956978
0.9873745968245624
0.9801875378297857
0.9784296028616568
0.989953626714243
0.9681599565250472
0.9893253037229428
0.9847906617786831
0.9905954254048996
0.9972914283195965
0.9973781449301284
0.9972738059543658
0.9979134323631335
0.9978435430024635
0.9979024263755627
0.9979697894873896
0.9980793380943471
0.9984231716629823
0.9984894669196728
0.9984549708250848
0.9980184352536712
0.9980696452748455
0.9981275120974538
0.997332447174833
0.9976697086952541
0.9975789124113723
0.9979406458718513
0.998104443337265
0.998006683544177
0.99816799290974
0.9984884560526612
0.9975390633543477
0.9984632263402846
0.9981028333681623
0.9982459546098627
0.9981591013989197
0.9983098416112203
0.997679844484163
0.9981730336448555
0.9982323820497085
0.998601523059775
0.9983064218208593
0.998359548817802
0.9974450408453029
0.9979583891128589
0.998013479187853
0.998501220420095
0.9981184257842788
0.9985339671557822
0.9981651036071802
0.9977278861209906
0.9980500761303546
0.9982073964038918
0.9985219654611667
0.9981972335180235
0.9983426912937473
0.9982705938361566
0.9983984953073267
0.9928258100787476
0.9947445200060462
0.9950948605201175
0.9952408821924033
0.9955353433480085
0.9964193130207885
0.9965992893854061
0.9974789093231784
0.9967296038179616
0.9968837076544046
0.9953127406158432
0.9957194183785912
0.9967132039902031
0.9969815721928114
0.9900011104057735
0.9906942163195768
0.9897668298188382
0.9931342958762537
0.9926117759048639
0.9930265124330754
0.9935155926509247
0.9956001620419667
0.9934627619130864
0.9953550301488403
0.9938057301682302
0.9955556140068321
0.9942077835348979
0.9957881969865106
0.9970315396004278
0.997131926487045
0.9970106001809692
0.9960297731754152
0.9958237076134432
0.9959932751449782
0.9961894060573793
0.9902505845727683
0.9928042585425334
0.9921242151689624
0.9943390212154396
0.9947213491640409
0.9932890148385434
0.9937564474913289
0.9952189487229763
0.9962097120555868
0.9964022079642036
0.9940231918642106
0.9956837514661464
0.9944086004041207
0.9959083715129494
0.9970785772684927
0.997467568427477
0.9973629924993953
0.9965499175928381
0.9967140898809882
0.9961018613631737
0.9962916749788508
0.9912534867491064
0.9934581141394865
0.9938182641638817
0.9957547831372641
0.9944580544479669
0.9959349774649059
0.9972094907662995
0.9961602344868439
0.9963136377185486
0.9932174079061884
0.9949587940475049
0.9940458306292034
0.996523951713669
0.99464861177974
0.9960501803052355
0.9975344676054266
0.9968182760111951
0.9964119457830616
0.9838292328569204
0.9710322509331576
0.9793995222472042
0.9846170977269001
0.9851886548597205
0.9872875844503776
0.9892340140919846
0.9920065533313257
0.9880085825814489
0.9901061545088644
0.986319745983918
0.9858157907192179
0.9899226064038381
0.9911931806574066
0.962744638559216
0.9677517820727746
0.9428694340152599
0.9324075108676093
0.9705819731140063
0.9744676194798986
0.9890601141484385
0.9873371087685774
0.9707130570880981
0.9466711648737069
0.9666442237170283
0.9939105110136068
0.9767782528459423
0.9901010790968406
0.9926827315592257
0.9724292576315113
0.9864550035790739
0.9480301602377467
0.8672240470459248
0.8955607614191501
0.9478551527456982
0.9564054487667196
0.9623139362389745
0.9683528303781472
0.9766125661364703
0.9607092812733455
0.9793979390892535
0.9654354619596034
0.9805770263692817
0.9707612839179325
0.9828242922036491
0.9885569342518395
0.9894183382468297
0.9882450722198837
0.9785791949199718
0.9810312617235953
0.9820199553050091
0.9840086149284849
0.9497688072404347
0.9643087896729303
0.9769280676840716
0.982840826363068
0.939971921570728
0.9586599031322905
0.9699362651837349
0.9835924960620166
0.9863574573580678
0.9885137072611109
0.9626464566255978
0.9801287473217039
0.9721561962715815
0.98342198754949
0.98885056172418
0.99198937846562
0.991152809596788
0.9871613392440227
0.988273087101231
0.981673323857103
0.9845464622288679
0.9395950848514578
0.9751245386055177
0.9655094174378555
0.9710016104479854
0.9815507646829782
0.9730334377723023
0.983675881571512
0.990120404526568
0.9828702547575195
0.9847627539627098
0.9832167333793573
0.9768901489699846
0.984191285454314
0.97244098622342
0.9889246339530483
0.9743095631474626
0.9842437821524702
0.9924910436425917
0.9896229050889089
0.9852995853982325
0.9468684315222995
0.9365191606249452
0.8943325298555058
0.9115018914740154
0.9489016080747732
0.9411045457203797
0.9609946525241398
0.9147997162006198
0.9778863781642315
0.9543539641199784
0.9684591656138279
0.984242993777741
0.9321272847313216
0.9355352426907336
0.8873287270156306
0.892748239301779
0.8875960466558775
0.8657592471468377
0.8887097986212515
0.9067930084111699
0.9386235529250704
0.9267546183288246
0.8918380498693621
0.9102746374798539
0.8569978817899601
0.8813610246739734
0.863769588331164
0.8870457719236633
0.9380256291485548
0.9757949964017367
0.9875685283401807
0.9986194546250224
0.9986602694502434
0.9986377519570719
0.9987815304930442
0.9987968303316952
0.9988076692114488
0.9987924289697241
0.9986800846133116
0.9988956120707536
0.9987698044222814
0.998848681409729
0.9988342452043194
0.9988828552950252
0.9988659784672508
0.9987947698225391
0.9989527698155045
0.9989396533231722
0.9986898388009599
0.9987169094351289
0.99884488088575
0.9988550118735402
0.9987854389249191
0.998897564324832
0.9989220075814415
0.9989938634085647
0.9974582631504141
0.9972014635218073
0.9971984013779571
0.9974292515006007
0.9972167118138298
0.997442509978693
0.9974451019436824
0.9983484397352447
0.9983642722021141
0.9984484275560035
0.9984661377837099
0.9984524549525556
0.9983698212750017
0.9983422125014185
0.9976634378686642
0.997383912481014
0.9975023126437741
0.9976464236566854
0.9976028776729766
0.997705765836561
0.9974535856220793
0.9984284275339997
0.9985158088140003
0.9984951978432596
0.9984222048653199
0.9985305270655741
0.9984096641575635
0.9984029016811045
0.9979915196230894
0.9977234819964413
0.9978689131273878
0.9979364954129588
0.997899249695216
0.9980266412394124
0.9978287066605752
0.9976669638162184
0.9973751240111912
0.9974447113852896
0.9975825143199529
0.9975948630681373
0.9974584277854873
0.9976550264414598
0.9978274889574802
0.9975655457274686
0.9975781946200719
0.9977030836682999
0.9977608485579117
0.9977716384580302
0.9976418589392638
0.9978201735283754
0.9985558387953795
0.9985442975663368
0.9984540968536397
0.9974493338204674
0.9984155175619868
0.9984030655738682
0.9981274110033697
0.9978880710941175
0.9979211043575307
0.9979848082990621
0.9980722404564196
0.9980431410376708
0.9979841984801155
0.9943679566437391
0.9931383684513765
0.9940724850297156
0.9940512645627476
0.9945878861171735
0.9938055134370095
0.9938092692190899
0.9974518157566411
0.9975290758138476
0.9973700178867143
0.9976956039453121
0.9976494958784371
0.9975048347035083
0.9973135744953652
0.9951885505717639
0.9942362699804803
0.9944027361257639
0.9943607864517253
0.9948652779412175
0.9947209267154311
0.9947852966818221
0.9976561282994116
0.9977179254322156
0.9974430574756781
0.997755391446187
0.9978275366906678
0.9975734766979631
0.9975309465065479
0.9906645493617298
0.9891922697851598
0.9891472440659875
0.9904249474381203
0.9893029062173399
0.9905305651582144
0.9905636229280278
0.9944169769050748
0.9945433100082922
0.9936812088341301
0.9939450673592345
0.9937375354214802
0.994588507529607
0.9943700758712545
0.9966362856560115
0.996926666694796
0.996923021322918
0.9965903693950767
0.9969443902723449
0.9966112349417438
0.9966156044604741
0.9922314922480319
0.9907015193306238
0.9916305521090394
0.9921350414298784
0.9917928741822016
0.9925515857918947
0.9912382534310119
0.9951701486700495
0.9949544849452254
0.9953919189947636
0.9945774931145018
0.9954380490098319
0.9946366821532771
0.9951207680147288
0.9969555228307201
0.997138358899689
0.9972751873777873
0.996930124577839
0.9972188217368092
0.996862218748793
0.9970210320288752
0.9923562337579387
0.9907216478825281
0.9913091106101263
0.9917082141047197
0.9917986400666702
0.9914099254888067
0.9922731883180873
0.9950656904240226
0.9944709292253144
0.9947642469199546
0.9942088476002557
0.9948072763369448
0.9945190340762563
0.9950252003453981
0.9969642822566565
0.9971287754119005
0.9972095555437193
0.9968327135057401
0.9972253668143111
0.9968518229750761
0.9969459834778915
0.993420183201507
0.992122667722577
0.9922578751938504
0.9925637058098159
0.9929537684847286
0.9930602208079826
0.9926902334170217
0.9958012220972156
0.9958288140217725
0.9956538181816391
0.9951351636846808
0.9960283562165119
0.9955880729727393
0.9953877053089878
0.9972075016799944
0.9973481935429275
0.9973630900339655
0.9970178978613768
0.9974361232015638
0.9971057238519763
0.9971233526714286
0.9885117710432996
0.981709198810822
0.9838370619405798
0.9864225926168083
0.9871674818028779
0.9845861139639492
0.987980292154004
0.992506712294717
0.9923860675747125
0.991978868410804
0.9935069286347685
0.9931902308073787
0.9928902001779948
0.9915367699154581
0.9926004119148459
0.9877604956333218
0.9895649586231123
0.9902658734556278
0.9907945900550786
0.9925707965060578
0.9901961286825649
0.9939037863904034
0.9937095214455125
0.9925227460632305
0.993901597372486
0.994355745919511
0.9933630859759797
0.9931412803575764
0.9433619543677684
0.9325863770866741
0.9507443414518886
0.9217242513445547
0.9882075864154273
0.9936757400980643
0.9928465480489652
0.989376997090629
0.9726329979948033
0.982262344481256
0.9774545354535954
0.976498908752446
0.9784506629821358
0.9774244062257442
0.9722420586491418
0.9879189466453094
0.9883656250119037
0.9865356378072895
0.9821122726054436
0.9861773119222355
0.983557991875606
0.9902146049345892
0.9860193029571468
0.9873524908862179
0.9858760703094659
0.9805677595125237
0.9819298586895409
0.9843339365162548
0.9891867287666974
0.9374815930261303
0.8938317177237997
0.8989814327884674
0.9323515265780405
0.9469033701114767
0.9493702695954086
0.9291899361948819
0.9686643213697449
0.9658931022976361
0.9549814803159031
0.9563153810373948
0.9578610556859297
0.9669706557116376
0.9676479371096444
0.9856658912119735
0.9877539645147007
0.9877095601737084
0.9856413582347137
0.9876409975593757
0.98465764177107
0.98584012717881
0.971155511315388
0.952492596588315
0.967418101087213
0.9620404946963051
0.980323870885404
0.974241707420033
0.9713059604120704
0.978811793456446
0.9796824904164968
0.9823460626615969
0.9715380150788799
0.9831748035401442
0.9732580953200488
0.9777309505129861
0.9889414103425803
0.9894193151235432
0.9905612217667847
0.9887816328612269
0.9900854867445815
0.9879541517059122
0.9892937575047637
0.9808690129073139
0.9749155661334424
0.9692571421879289
0.9763155967179289
0.9756814444439793
0.9771153410430446
0.9802815110577218
0.9892632441948114
0.9894624573000415
0.9901977428226389
0.9878513147645882
0.9903229742341916
0.9880295222470294
0.9889962194175957
0.9867654943707127
0.9866751990590428
0.9884740041508639
0.9801824023342229
0.9893482068069214
0.9833464421289347
0.9850800816480271
0.9909398409886503
0.991168966871526
0.9913427700607285
0.9893487846250598
0.9918657611664951
0.9900705073316507
0.9902975978369095
0.9009719809586191
0.8656948751778292
0.8949963482866756
0.8731819452216559
0.9321732641932097
0.9309204831464842
0.9457370250246109
0.9132439688797913
0.9737704060931534
0.9684260167683419
0.9768400851056207
0.9606012002868571
0.8901353341552397
0.8637910032841977
0.8934666874349433
0.859663954879859
0.840762834313848
0.8562068533169294
0.86418366365329
0.8315065368576264
0.8914429506867689
0.9262027326218797
0.9141209806302528
0.9071619861178016
0.8241162468220556
0.854182180811547
0.849798864453764
0.8291669395176333
0.997489411666083
0.9972378793714972
0.9973061033578438
0.9975225737632261
0.9975352702360739
0.9972528943221833
0.9974764406062741
0.9975151339166168
0.9973351868836784
0.9973265881972785
0.9975977121555741
0.9975531681674187
0.9975604558427192
0.9972826475608153
0.9974843577267717
0.9972288483814168
0.9972915392356918
0.9975076473743452
0.9975229324985565
0.9972469247274017
0.9974687952932236
0.997700168261401
0.9977288088582805
0.9978788948500024
0.9979229296647402
0.9978886141747424
0.997739802856626
0.9976889428981609
0.9976732634996884
0.9976481882342715
0.9978554232555895
0.9978534918634718
0.9978652949073543
0.9976596589829401
0.9976618760166737
0.9976958536768561
0.997716066374297
0.9978732348280508
0.997913857669201
0.9978848863494783
0.9977292753862069
0.9976824115204662
0.9977224441565703
0.9977939883082374
0.9979418064419611
0.9979364629435071
0.9979079099684877
0.9977554189060738
0.9977616350158103
0.9982102549234221
0.9982290455751948
0.9980493344338035
0.998087496555617
0.9980577555767007
0.9982360022977447
0.9982029367878767
0.99833148513945
0.998429674407014
0.9984270745815979
0.9983167598704267
0.998433592309794
0.9983230017423581
0.9983253223396428
0.9983629046011715
0.9984832228786132
0.9984811614429682
0.998396170712193
0.9984685559690988
0.998381080588541
0.9983842994406333
0.9983459195989195
0.9984432089248577
0.9984613531015755
0.9983558469343001
0.9984497855587954
0.9983639019850621
0.998337367379867
0.9981921992013361
0.9980288398757985
0.9981754654692013
0.9980270883574405
0.998037417180727
0.9981829856283415
0.9981847480753138
0.9982073211870223
0.9982202366110743
0.9980443014249439
0.9980795721667999
0.9980544774134424
0.9982290129519771
0.9981982333276684
0.9982250822791241
0.9981037321454316
0.9982693011790856
0.9980991026689543
0.9980744997538458
0.9982461852553849
0.9982501730050918
0.9976347254993466
0.9973497365631578
0.9974037142305514
0.9975584034236785
0.9975733338107433
0.9974204674114314
0.9976202186787558
0.9977338550962027
0.9975812804443548
0.9976248494958135
0.9978521313219886
0.9978129241822418
0.9977747323661929
0.9975343698756577
0.9977061076144198
0.9974863476508188
0.9975943462429109
0.9977728193239306
0.9977862855871064
0.9975024802838964
0.9976920868654479
0.997826428839238
0.9977600960070544
0.99798735069536
0.9979518104416961
0.9977730152433334
0.9979982286427831
0.9978138406381943
0.9978887986294116
0.9979472917090024
0.9980422074898209
0.9981149398337666
0.9980528727409663
0.9979591321960622
0.9978765624602782
0.9978513922393238
0.9978364271715264
0.9979739355227835
0.9980519989731402
0.9977986092104385
0.9980198646813068
0.9978883164362948
0.9979130776399948
0.9980173110220201
0.9981360693314451
0.9981058238792644
0.9980741939020776
0.997982628386492
0.9979489349811305
0.9984124540365095
0.9984954157429714
0.9985026867964588
0.9983843596082788
0.9985058337415184
0.9983924936668789
0.9984080516252227
0.9984630375479594
0.9985590244954278
0.9984939055158588
0.9978724001250647
0.9985844272679902
0.9983888085395231
0.9984129336599527
0.9984476729000423
0.9985564638792698
0.998427795832773
0.9983957162251179
0.9985605553190565
0.9983730218394772
0.9984458215754555
0.9982902589882509
0.9982494546165881
0.9981430854517016
0.9981124428258595
0.9982578265122687
0.9981522843067023
0.9982829807469503
0.9983316475145463
0.9983737513355904
0.9981910383331305
0.9982551810252663
0.9982000959616001
0.9983808913788924
0.9983248920355201
0.9983052481757032
0.9982955552841001
0.9981314074372323
0.9981974170517619
0.9982742189999494
0.9981706495022789
0.9983209553956784
0.9983470699040923
0.9984677020519337
0.9982748063176398
0.9982460727029189
0.9982186441518134
0.9983979835015199
0.9983663026849212
0.9979675708351604
0.9976945084714022
0.9977875140129501
0.997861077704159
0.9978739065897309
0.9978013579409599
0.9979554337157287
0.9981188178655294
0.9980248687763659
0.9982474375973966
0.998183165538807
0.9980361943088614
0.9982572636106745
0.9981080549425229
0.9981399833960874
0.9980913424702714
0.9982030986553816
0.9983027466927479
0.9980585483324901
0.9982766213624139
0.9981706110648584
0.9984703579157591
0.9984180071177694
0.9983760305774889
0.9983155934937288
0.998424412024058
0.9983855806041145
0.9984623202115298
0.9984916186368107
0.9984619425516745
0.9983328847164523
0.9984250633357769
0.9984434233265316
0.9984065007747479
0.9985023050000629
0.9976906623917033
0.9974033472885886
0.9975257872448263
0.9976556409773238
0.9976193696061335
0.9977257463217178
0.9974856183395846
0.9978539354907087
0.9977806749568149
0.9980128874215962
0.997967623220905
0.9977913855797386
0.9980218383555681
0.9978435452466656
0.9978746255374569
0.9978443043133076
0.9979860345719381
0.9980666635384383
0.9978126823958575
0.9980397752888192
0.9979053943342767
0.9984296722105064
0.9985206169845504
0.9983979288634121
0.998505546174093
0.9985204740632549
0.9984035784079712
0.9984282052050099
0.998308577833704
0.9982636559765691
0.9981653901961968
0.9981262619029275
0.998270194404522
0.9981727881221356
0.9983032640742198
0.9984418090946413
0.9985232634465436
0.9985029686840822
0.9984283575013884
0.9985421808314365
0.9984181064345474
0.9984120737863431
0.9983202057356887
0.9981419395942942
0.9983012233657593
0.9982100878181089
0.9982835775810645
0.9981878130008965
0.9983319436919549
0.9978920683184376
0.9976421381103543
0.9977980933761967
0.9979029630042071
0.9978278432116344
0.997964339298841
0.9977155797506749
0.9979956340757351
0.9978858869056422
0.9980951588305186
0.9981031302969436
0.997936703854477
0.9979459533074275
0.998149397641658
0.99805245861648
0.9980619931810311
0.9981468330004861
0.9982552514273261
0.9979955978252443
0.9981992878761276
0.9981159350227727
0.9984607982625991
0.9983289295243605
0.9982372201325794
0.9982439614146489
0.9983610963399839
0.9983646495438744
0.9982954766943918
0.9984342148878099
0.9984381940471839
0.9982790514969423
0.998385779058043
0.9983951966895113
0.9983359842634018
0.9984636212671175
0.9982583131399565
0.9981338284044319
0.9983371603869784
0.9983150226261402
0.9982103738118099
0.9981848480954684
0.9983776472643695
0.9985549339868477
0.9985018691611828
0.9984540921230132
0.998435789987706
0.9985372348284457
0.9985259068602941
0.998483706230144
0.9942153674939588
0.9929316045216973
0.993532219927206
0.9935473963349385
0.9936348215347782
0.9936260526827869
0.9941372482763693
0.9947434456949336
0.9941832699922901
0.9951616657675032
0.9948049813082027
0.9952165053548289
0.9942557820213495
0.9946781453666912
0.9948711696784402
0.9946022773000434
0.9954796766124663
0.994923367336043
0.9953239353265432
0.9950558204216327
0.9943975340391495
0.9960203977417891
0.9955940992284826
0.9952915696781082
0.9956807873437996
0.9956403724109919
0.9957235040279592
0.9959811720150392
0.9960974594403597
0.9958630920385396
0.9953909731813689
0.9959295177298126
0.9957311558444218
0.9962097037201235
0.9958073948290622
0.9963614280931118
0.9960715083272413
0.9964501005484654
0.9966392515538839
0.9966678119890501
0.9961076874801897
0.9963280283355297
0.9964271248229306
0.9962826093404489
0.9965107099940058
0.9968062809328495
0.9967240519706053
0.9965230073699924
0.9961788298022122
0.9974157113722285
0.9974957708511286
0.9972556482841215
0.9976022482695474
0.9976181275837366
0.997275125841446
0.9973974246978391
0.9971917099729476
0.9970070406587993
0.9967559214299098
0.9969189038231521
0.996943425735725
0.9970296343103023
0.997170573446006
0.9972334094144827
0.9971395361769029
0.9968077842943702
0.9970625481173938
0.9969917612489123
0.9972945669998109
0.9970741991045008
0.9955638328504987
0.9948613545064955
0.9956777427821855
0.995568933245102
0.995289747543089
0.9959109224419855
0.9951644837420621
0.9965239098163935
0.9960314598310752
0.9960857223374692
0.9959368211009492
0.9963533819434816
0.9962305252155553
0.9962709420126419
0.996792659667037
0.9964157299559656
0.9968491994199291
0.9969120915923864
0.9966460806047684
0.9970385066175719
0.9965741425830034
0.9974685414953146
0.9972239299711373
0.9970987476618972
0.9971538406059486
0.9973736015919294
0.9972632211792561
0.9973252430401109
0.9909308457614541
0.9895133156692544
0.990120425928528
0.9912190750424512
0.9913157287003427
0.9896376282109752
0.9908301033777716
0.9911303783924424
0.9903545781706817
0.9902445267231937
0.9917823022538707
0.9914213760103378
0.9915057914347494
0.989885042660988
0.990869129124105
0.989388314085296
0.9899293207369964
0.9910405478286702
0.9911697344336462
0.9895562613635045
0.9907356887857928
0.992020997052151
0.9922524275322941
0.9928786451956968
0.9931995430187867
0.9929466658138139
0.9923315453923602
0.9919384243645127
0.9918060779102793
0.9916103859564347
0.9927020488959352
0.9926826231810654
0.9927718835335086
0.9916964993203986
0.991721593674029
0.9919734946690044
0.9921145487182107
0.9928222175130216
0.9931111005444043
0.992909634411353
0.992218580071572
0.9918659213290769
0.9921838825256134
0.9927141708480423
0.9933279969052703
0.9932765233029091
0.993080691837553
0.9924216648005543
0.9924872155673463
0.9950036708566029
0.995108449043934
0.9954796397213576
0.9956321672401451
0.9955126958429987
0.9951463832590371
0.99496440186369
0.9942989231727687
0.9935365805938399
0.9941900806020904
0.9935213330566218
0.9935943870254953
0.9942387479342492
0.994250852871731
0.994905662361358
0.9953970337431528
0.9948151117658918
0.9953891778726031
0.9954308129715677
0.9948557676648612
0.9948654747890643
0.9943937140718209
0.9936367751912586
0.9944752959950922
0.993875074741622
0.993708336397276
0.9945325644978061
0.9943347156154331
0.9949849602245185
0.9954566052728344
0.9950536406717764
0.9955954584054089
0.9954975138055773
0.9951012583730445
0.994935989095304
0.9945094554992014
0.9940517469405425
0.9940109085355512
0.9948081609690953
0.9938485343191693
0.9946449120792672
0.9946776241679881
0.9950811566797065
0.9956953711601466
0.9956738282554002
0.9953310345392909
0.9955779710323472
0.9951948012978731
0.9952212381872478
0.9966857052885507
0.9969691501000874
0.9970485489298614
0.9967383900451326
0.9969865833838163
0.9967581793227324
0.9966653867045003
0.9967259125286707
0.9970822329684537
0.99707202842694
0.9968550547045986
0.9970211044094283
0.996785160421429
0.9967973416705682
0.9966772086366598
0.9969584065399525
0.9970312501312638
0.9967133550626065
0.9969794842586235
0.9967375076459711
0.9966525217801904
0.9963445629443666
0.9964066089387105
0.995928343968048
0.9960569114515559
0.9959563143119778
0.9964297306060538
0.9963207789969153
0.996286397197864
0.9962324156080006
0.9958589524620342
0.9958525409492105
0.9958874946106528
0.996256885133852
0.9962621588618402
0.9963343264030861
0.9963764845384937
0.9959095153873463
0.9960268130935641
0.9959438948114876
0.9964048714436019
0.9963052704534101
0.9963915956853658
0.9965427700701143
0.996110543486319
0.9960928530885438
0.9960115869488977
0.9964608257361931
0.9964754567289529
0.9920080734324764
0.9904040155979351
0.9908186620500734
0.991431472296405
0.9915541619344939
0.9909614213976606
0.9918932277546758
0.9927225221540289
0.9921963167001403
0.9924737731792485
0.9935239032841809
0.9932522827173792
0.9930192049235699
0.9918332267639243
0.9925158232902481
0.9914476321432788
0.9922428829889393
0.992966423363311
0.9930633447778224
0.9915787243939349
0.9924096606095686
0.9933247447625856
0.9936992228261851
0.9944050546637907
0.9939547313016903
0.993778955663446
0.9940261309981898
0.9932380156757606
0.9934940388330067
0.9941594377486106
0.9945342852932617
0.9943678354401965
0.9939347020775426
0.9941657994001432
0.9937380926898909
0.9929053932843551
0.9924336105333948
0.9936015030065979
0.9933698706586691
0.992532757285902
0.9936778999781098
0.9928121164354142
0.9930873785560301
0.9930047362726441
0.9940432729311893
0.9935279642864512
0.9927261910739451
0.9938272927368496
0.9933495065919926
0.9952670680358099
0.9950623638549889
0.995660385306658
0.9949209404920171
0.9955286140899742
0.9947526726927962
0.9954080203421254
0.9956379316951265
0.9958259841107109
0.9962426541429893
0.9960145529558567
0.9958648657664178
0.996049527653714
0.9955964889280933
0.9957193820642846
0.9960527524449397
0.9963074895472372
0.9962188555793466
0.9959413012056978
0.9961183489667539
0.9958380986821318
0.9949259969390657
0.9942828455740358
0.994656572777613
0.9940896609202358
0.9947116103156921
0.9943458883101872
0.9948736173008579
0.9954318750635635
0.9958379262622364
0.9952056333277379
0.9957222248386168
0.9952515081073059
0.9958747611585357
0.9953880792545335
0.995028778518076
0.9946484909275644
0.9942198623349141
0.994976520410959
0.9948195897902973
0.9944693972058317
0.9951781988287097
0.9955179324739892
0.9960530316563295
0.9957979060940034
0.9954729221770091
0.9953416365094954
0.9959472298206994
0.9956433217902566
0.9969108713776063
0.997098672670155
0.9971610301620518
0.9967924664337129
0.9971804558010137
0.9968159272559824
0.9968882437081388
0.9970632336979827
0.9973660390350337
0.9974159301404925
0.9972430214444384
0.9973119089963807
0.9971833078675406
0.9971259916684572
0.997020464336962
0.997256413018954
0.9973807858767092
0.997122007088511
0.997275066595511
0.9971426212480716
0.9969987925158751
0.9967346512560266
0.9968523783482826
0.9965779643824481
0.9963832072492042
0.9968763690275978
0.9964128783721247
0.9967093539103492
0.9967845320902115
0.9969930239249155
0.9966332231892578
0.9965568349798908
0.9969236807634126
0.9964713266963822
0.9968576216737314
0.9966071716337506
0.996468954510554
0.9962327993610615
0.9961343137227959
0.9964964767749512
0.996263951402569
0.9965806877208643
0.9966593852396495
0.996630198446965
0.9964150460181608
0.9961982224432324
0.9965507315435235
0.9963253072972692
0.996735876293755
0.9925189735052486
0.9909385983197009
0.9918919669035493
0.9922343529290042
0.991976132187059
0.992756489805643
0.9916049752045122
0.9931785804081827
0.9926487376703573
0.9938369580710857
0.9935197546435386
0.9927231483627812
0.9938943832600506
0.9931096962214784
0.9933139881451761
0.9930827106672208
0.9936410767698201
0.9941725758010527
0.9928694404500953
0.9940074186373055
0.9935115790111446
0.995545501165535
0.9952927298315909
0.995938804812761
0.9957854487796772
0.9953289655061354
0.9959678910248562
0.9955112611546039
0.9951455413235935
0.994310034386905
0.9950164250437552
0.9947525139859823
0.9948921230786127
0.9946138178666315
0.9952625551661842
0.9956130820088098
0.9958460133301832
0.9955053825951498
0.9961097557575156
0.9954004752099652
0.9960253439577487
0.9957122493388529
0.9970005013693127
0.9971613822538916
0.9973028910665404
0.9969453839116047
0.9972566833935317
0.9968896430914462
0.9970538889991913
0.9966710528078114
0.9965172656871797
0.9963160102809209
0.9961863096475646
0.9965395389380651
0.9963408273647235
0.9966497873596741
0.9967131165699714
0.9966484488379138
0.9962378456957063
0.9964620413725738
0.9965835911659512
0.9963898830844203
0.9967750567811381
0.993824964396552
0.9926505926236099
0.9936944494570455
0.9938655734654974
0.9942625676261762
0.9933921617405184
0.9931740528841674
0.9944061095349366
0.994443510519726
0.9952376824521924
0.9946240789671822
0.9947754698467673
0.9940463194284893
0.9949247511722833
0.9940660696752661
0.9933558464994262
0.9943170049336159
0.9943848229959577
0.993680295020283
0.9937649031747919
0.9946379206390801
0.9961709473671206
0.9961956266313046
0.9966691951030487
0.9963479771833496
0.996365516193613
0.9959902041458
0.9965019294635868
0.9955946484912234
0.9948763559714819
0.995176788453881
0.9949311506795413
0.9953689664691749
0.9954135751501338
0.9951447741155534
0.9959946013843388
0.9961889000178504
0.9956409880150866
0.9962190972876329
0.9958039014165623
0.9958404793329212
0.9963508117697167
0.9973047038371963
0.9974361557712228
0.9976150843324304
0.9973202619629374
0.9975206220103908
0.9974131551403992
0.9972071456983824
0.9970650769822821
0.9970825531043556
0.9969429440932612
0.9966669545267806
0.9971899703443883
0.9969519529002665
0.9967986514276981
0.9969528716861449
0.9967327027885865
0.9965305718037376
0.9965556615577202
0.9968345670621839
0.9968555389451434
0.9966686704619718
0.9923983364463541
0.9764993981405341
0.9887110435571137
0.9868792424215745
0.9830379130137633
0.9899029520755829
0.9778655919089784
0.9744518542232167
0.9877163962227166
0.986079983620032