/*--------------------------------*- C++ -*----------------------------------*\
  =========                 |
  \\      /  F ield         | OpenFOAM: The Open Source CFD Toolbox
   \\    /   O peration     | Website:  https://openfoam.org
    \\  /    A nd           | Version:  7
     \\/     M anipulation  |
\*---------------------------------------------------------------------------*/
FoamFile
{
    version     2.0;
    format      ascii;
    class       volScalarField;
    location    "0";
    object      p;
}
// * * * * * * * * * * * * * * * * * * * * * * * * * * * * * * * * * * * * * //

dimensions      [0 2 -2 0 0 0 0];

internalField   nonuniform List<scalar> 
12675
(
8.707996452311669e-05
3.925347641595573e-05
5.114786982660288e-06
-1.57930222391458e-05
-2.823247946683558e-05
-3.489195854708111e-05
-3.721344933569566e-05
-3.585061717122302e-05
-3.089906690568375e-05
-2.198081435320052e-05
-8.22700306874697e-06
0.0001167846766096368
5.978755540321309e-05
1.980102231107388e-05
-5.070105211146095e-06
-2.028763952356676e-05
-2.89604509403811e-05
-3.278562479787962e-05
-3.259356573655021e-05
-2.861494979962723e-05
-2.058593621096135e-05
-7.748166165350892e-06
0.0001214296390879687
6.302321021604371e-05
2.203789150896376e-05
-3.508528394429571e-06
-1.916789240775639e-05
-2.814103966867053e-05
-3.218102169926961e-05
-3.215153907360497e-05
-2.830555690965932e-05
-2.039671064201903e-05
-7.683046273973849e-06
0.0001487117633292303
8.094368451551158e-05
3.50304665672152e-05
6.211730152142975e-06
-1.183597302879111e-05
-2.260105538058732e-05
-2.80103806799648e-05
-2.906442830010686e-05
-2.613051808592449e-05
-1.906407359267643e-05
-7.224760455299092e-06
0.0001868831913549983
0.000229244782077742
0.0003152244052664363
0.0002561376663400412
0.0003373319027333833
0.0004660449441361934
0.0002353393468165325
0.0006368519561920845
0.00028913955196858
0.0008228376772805162
0.0004149917504737094
0.0005930044050324489
0.0006780675776547565
0.0003152905599032857
0.0008501669268758554
0.0004332293346740023
0.004355284560494125
0.0009321185142398992
0.004410963686219206
0.0009622025252643783
0.002743764545389619
0.001687991499797991
0.0005282978731440625
0.003794815965474334
0.002153420789395949
0.0007247894422920595
0.003669427227092773
0.001848322208385596
0.0006750781919745574
0.004009945229934205
0.002362392991090058
0.0007718993080955921
0.01833594498925673
0.005099627499437077
0.01679939715827866
0.005145802938249996
0.03455884074763464
0.03064080314919243
0.03136986389591218
0.06732499819307726
0.01740539880928864
0.003310981369640648
0.03308210815698413
0.01873589927813226
0.004529413059030376
0.02190752178812243
0.004430885294015209
0.01748446244219315
0.004788342037034785
0.0005450746207572505
0.0006015888150291648
0.0005296078225385151
0.0003780808005406737
0.0003248842684860277
0.0003684640672695392
0.0004156766924978577
0.0003368436674335307
0.0002012818734124916
0.0002680625953989163
0.0002307703412935616
0.0002888552837721233
0.0003285699798954224
0.0003717720223355407
0.0005691626887815423
0.0007731647737169517
0.0007217128741056372
0.0003954657318356747
0.0004971019478136225
0.0004383635023113334
0.0005245357844372844
0.0002497221315943978
0.0004702127588239692
0.0003466348609562356
0.0003535467429459782
0.0004369429806088548
0.0003924355582463617
0.0004269948612362194
0.0007776569338729654
0.000539251136855222
0.0005673105174511922
0.000391971347029292
0.0004799080592137718
0.0004973259540165914
0.0006453196526225128
0.0004104510551655842
0.0004437586461643338
0.0002568611968280783
0.0003665562674906473
0.000291568184218782
0.0003972453909354732
0.0008044973877532031
0.0004640575045672873
0.0005532628736716546
0.0004059820020741817
0.0004144259812699298
0.0004833143758377832
0.0005924020416619614
0.0005247811862240055
0.004219328946476237
0.002647167783044177
0.002762594950361447
0.002282550353409842
0.002388293138279754
0.001492407004319654
0.001570576753242134
0.0008816386394913717
0.001303184772006191
0.001373379049407082
0.002821334314314182
0.002444078482451371
0.001614780509457813
0.00141369776704604
0.003360062244607513
0.003638517910792048
0.003147337011999088
0.001984828760720688
0.00164330824478815
0.001885456269565671
0.002177704620147508
0.001071714908779623
0.001402861503462925
0.0009007881048655886
0.001609616010243229
0.001031346803301682
0.001856203225018151
0.001183011165294973
0.0006198445094700071
0.0006846100501934461
0.0006013788786701424
0.0009294913502406822
0.0007840959745096692
0.0008966399764495999
0.001026592323162911
0.003368776627990083
0.004256565432332471
0.004049455863513732
0.002506007331695008
0.002658482357137606
0.002028240863357602
0.002290055448004247
0.002289175366502532
0.001396873682653347
0.001491368657992987
0.001732493701961544
0.001110531251757465
0.001955302125444129
0.001250284538121534
0.0006466947248063238
0.0008775760015005909
0.000819461572768878
0.001217299773511049
0.001300928645905468
0.0009653176291044357
0.00108569394558362
0.003888830774035171
0.002173773603647054
0.002337725670440919
0.001171459965541326
0.001993769736745665
0.00127119703564779
0.0007348210687957607
0.001015174676965894
0.001102954878149029
0.004350654661166821
0.002738469113965874
0.002432664120650943
0.001545339736112205
0.002079052693921009
0.00133133845460364
0.0009124135762334822
0.001349349809621475
0.001156281006042691
0.02978952993417749
0.03962980465238573
0.02021628274126687
0.01869422592809483
0.01721692067691865
0.009517729344512197
0.009516278068691261
0.004964382578107764
0.008725415023284956
0.00836401805849672
0.02738444529903056
0.01816067904359642
0.009485935768667002
0.008281499838316506
0.04798058392555817
0.04482312997516365
0.05600966252539104
0.05817036405288641
0.04305550284005968
0.04005033146316549
0.0262289755218473
0.02828484155467517
0.04278034433947051
0.05523670569452931
0.04638544538386626
0.01991876444480675
0.03815291800060107
0.02494647831368194
0.0216813763426811
0.04237185765752751
0.02968297893355715
0.05665523363501689
0.06532732913787193
0.05913900145243334
0.02010318040207793
0.02090633310330073
0.02464161712432418
0.02353572848132947
0.007122692234666103
0.01837010476611953
0.008074964893224595
0.02153609344071652
0.009066024905698515
0.02085155944451679
0.009428594344047426
0.004070697743618813
0.004370689629477583
0.003791953709748325
0.006366034791054729
0.0072576879179139
0.008102873507339894
0.00848651308643659
0.05548963456370053
0.04337435958559484
0.02076132979824694
0.01950845556692773
0.05392921763563115
0.02110877871185871
0.02323066105723329
0.01786945666130807
0.009465758859464489
0.009556878945488271
0.01860064657253674
0.008295994954430218
0.02065034933457852
0.009502690500323888
0.004042430970922342
0.005017125294867147
0.004795835409025907
0.008636719412925407
0.008889066046554213
0.00746978369577761
0.008561249309531845
0.0653712127398208
0.04003524609118247
0.02494003467964373
0.02356047374573206
0.009415139151224902
0.02096602854685121
0.009657050708117234
0.004647699384588358
0.008432102006130336
0.00870078770870638
0.03046448552408099
0.03814008451538579
0.01900401521939713
0.02318314873933618
0.009589935207921872
0.02069812810647945
0.009714740927450161
0.00510957458464633
0.008490980671528023
0.008775462842413238
0.05996064895596048
0.06804598035674465
0.07434203322742637
0.06717474844387822
0.05856008896447304
0.0568085162038859
0.05019787422217192
0.06602533199427921
0.03981174464497837
0.0565037405116995
0.04597034917991019
0.03234068540089554
0.07184692558615417
0.06887310729110288
0.07818288238571106
0.07515100490484601
0.06407588553727328
0.06844416451475284
0.07381167152971829
0.06704966220649024
0.05745088648296091
0.05917344236216016
0.06354618720719378
0.0659928394164212
0.07150875800114502
0.07755468347029273
0.06905508981333258
0.07459415153937847
0.06946297085136519
0.04203411037851964
0.02777477447332325
0.0001693769755954596
0.0002011330212246794
0.0001844428790644461
0.0001283884334421087
0.0001411989159433781
0.0001509201407070027
0.0001397562501522984
0.0002141931580659237
0.0002621847987626318
0.0002516424953052259
0.0001668307503758671
0.0001592239946874499
0.0001880592865113473
0.0001865784322806469
0.0003030248978738825
0.0002373367580354318
0.000229270765983284
0.0002210966785738845
0.0002336858458464955
0.0001640221687526793
0.0001701366882299883
0.0002982190172859667
0.0001792271864421846
0.0002205302012093551
0.0002570833638688726
0.0004335660058312002
0.0004798465417979141
0.0004769480406440255
0.0004122814056843681
0.0004905356737988742
0.0004217931660227271
0.0004242431568783958
0.000252370250855205
0.0002658066826289922
0.0002178115091906945
0.000240635367902806
0.000222817406862224
0.000271495137641326
0.0002468738727448538
0.0005706591186237787
0.0006039316893715629
0.0006782726612122584
0.0005607737296766214
0.0005323202408415716
0.0005970958753753252
0.0006477377579561103
0.0003348378770254141
0.0002673311014232668
0.0003266986981751812
0.0003280330829971478
0.0002956666940722396
0.000305136216147482
0.0003599571060281557
0.000755796641146326
0.0008008975679359117
0.0008713112796849932
0.0007275993533193475
0.0007079023565036251
0.0007726790043117066
0.0008526498229254199
0.0005775577431526035
0.0006019455688006659
0.0006480479360131679
0.0005225356628615773
0.0005302858981515193
0.0006561525910920048
0.0005705571893632235
0.0006700754762633176
0.0007165719555324262
0.0007254932782953844
0.0005966617518460903
0.0006307324541008108
0.000638348924213927
0.0007606580193794406
0.0004530078888791099
0.0003526949421766116
0.0003596973469620901
0.0003613056553050516
0.0004730749008906808
0.0003950488378212843
0.000401488203529617
0.0008178849041876165
0.0008811481689502385
0.0008943868915449161
0.000752714982498627
0.0007939064243537018
0.000781313189995336
0.0009203791420470106
0.003765655823834436
0.004295775946124663
0.004407799629895928
0.003730602330774989
0.003800127409997703
0.003671417083282584
0.004378379630784179
0.00109279647492202
0.0009077098992402026
0.001058163600669855
0.000984764719430843
0.0009641944737101725
0.001115427122266838
0.001031000622159417
0.003848513923329503
0.004448238218998804
0.004428548835324076
0.00379043146229849
0.003830933172342496
0.003838805271653806
0.004429518677660229
0.00117334779796963
0.000996027967163527
0.001091371787332538
0.001009979755964145
0.001038152386704902
0.00114294118253717
0.0011283502807665
0.002445741683622524
0.002848525793472622
0.002804738494228607
0.002296515262412145
0.002929344913487073
0.002356724499174734
0.002390182349415146
0.001357668771319232
0.001443621525808241
0.001552467686130523
0.001717607905235528
0.001585292660249689
0.001469310200587544
0.001329439205713952
0.0006335425362672711
0.000544321151449765
0.0005408556935688316
0.0006006545550956816
0.000556627518439661
0.0006151606287015268
0.0006193408637806978
0.003200211062717965
0.003598415315395941
0.003959710730940365
0.003189885328661945
0.003021449961234096
0.00334146952491073
0.003797548228991885
0.001758816143092858
0.002178394188713463
0.001857517010452951
0.002013158517702369
0.001879468868675322
0.00204354513556487
0.001732526541178757
0.0008399295189085521
0.0006869011718356245
0.0007716925097082128
0.0008268896101099986
0.0007367262740474449
0.0007833176342522409
0.0008799111102754766
0.003353604395264045
0.003708858216115927
0.003971792703178664
0.003061346440657559
0.003097852149704637
0.0040004512197696
0.003325886704531986
0.001746632366330585
0.002019229976303804
0.001580065782300376
0.001873978390103523
0.001602620547290733
0.002040491432969972
0.001727586767794624
0.0008537126124373503
0.0006853269888470757
0.0007381631354420388
0.0007708683575396981
0.0007474128408106447
0.0007825728137177084
0.0008432268499934268
0.003652297395432586
0.004138125123438366
0.004217302198088946
0.003378019520968865
0.003499272635888807
0.003564144870017955
0.004303435797368728
0.002043715854089198
0.002044482334593272
0.002437006039738267
0.002270073967186771
0.002113867303620258
0.001958293681880499
0.002364183465865878
0.0009849031390622598
0.0008151488334822482
0.0008256248085300939
0.0008807181545939917
0.0008646324046378504
0.0009292398118309895
0.0009415915059313939
0.01274142813693987
0.01815999509556602
0.0137406259224578
0.01644734536988983
0.01613439573232239
0.01371255954438744
0.01288434999755716
0.005965165136349713
0.005043801527215107
0.005988742361450979
0.005123716330830777
0.005104192354953725
0.005966408057339912
0.005944948591466446
0.01082418698709905
0.0131807028535915
0.01508409822975751
0.01446035919043692
0.01187943286274218
0.01277335245865536
0.01231679527542681
0.005882128632091264
0.00516374945261986
0.00601684502939837
0.005127630086623282
0.005103175134473824
0.005944099839287828
0.006003293694257359
0.06724656252456433
0.07230981818079277
0.06275475276249838
0.07632147679872309
0.03159655184181754
0.02424279424152067
0.02550679885844755
0.03000981641377514
0.04430487112663799
0.03543458304151632
0.03758129744982962
0.03853206422603747
0.03913696420153639
0.04019216755048009
0.04179699543755215
0.02927552000744281
0.02685186009948714
0.03082732076314986
0.033377363668039
0.02928012383856456
0.03409218071112708
0.0264564405093095
0.03160080549077068
0.02810611307985466
0.031613122275045
0.03504111007936767
0.03589992136153178
0.03144403843405053
0.0277885376911197
0.06463875693198347
0.0716504159009453
0.06902140861706722
0.03904203581546007
0.04310024543169711
0.04202267295569204
0.03977688538408075
0.01268688459485422
0.01158774052094469
0.01761772932253387
0.01878378344092495
0.01889575890853392
0.01185050318642017
0.01248842791016573
0.00432730787539389
0.003444375407034352
0.003387696276214447
0.003871190059160957
0.003552051482683089
0.004431114757615315
0.003963932989230924
0.03955006956310006
0.04920034104453423
0.04272974165708262
0.03451617321116102
0.02717706308248581
0.03014935702813858
0.03226528430645084
0.01401472025855374
0.01863791987783203
0.01386848751595591
0.01920062532318121
0.01389225871368138
0.01942911322140141
0.01379056653405332
0.005432714522557891
0.004311131353180205
0.004719577803987259
0.005465009806020702
0.004518482456894211
0.005200536055473942
0.00567352242696935
0.01544852417954187
0.01503423191896361
0.0217005409875356
0.02164792335312614
0.01501298314173512
0.02132744541592009
0.01557609484575054
0.005790079903233797
0.00447063193702306
0.004766759783013182
0.005380264818783093
0.004788063103905217
0.005424311740963215
0.005766663203068702
0.01379855574049815
0.01353213767357873
0.01580731203063217
0.01919014747548325
0.01272638517434218
0.01431634828016051
0.01776658253506586
0.006035908881166595
0.004919403065677994
0.005015342835847209
0.005767338309658904
0.005091201730005887
0.005881408175202186
0.005995545384215034
0.0952538706369125
0.1047931376783623
0.100135795013475
0.09994346482659847
0.07480231211471865
0.07333322675483249
0.06647805766453008
0.08106557274578918
0.04769698716380505
0.05132323187773107
0.0415763989932413
0.05875070790124656
0.10454739547703
0.1061527456783658
0.101476364417676
0.1093100600010983
0.09808379523204389
0.1049550509076351
0.1002127263900774
0.102309058821447
0.08446617331224736
0.0750847117960883
0.07872322413210063
0.08241021421866075
0.1065110486867177
0.1062973795718088
0.1094337450000842
0.1035489891645557
0.0004564635436892605
0.0005066790139331695
0.0005547527963590019
0.0004808429060150818
0.0004892592690443377
0.0005169518800348036
0.0004475114901085599
0.0004741240284752001
0.0005738543075970471
0.0005666038583273254
0.0005300085617536676
0.0004997452803685682
0.0005058750510585384
0.0005372120373005188
0.0004519550467510052
0.0004984410664181858
0.0005421716520278054
0.0004677695641805808
0.0004786280874517695
0.0005116095901074065
0.000440554735617911
0.0004043285972830736
0.0004256149522086511
0.0003522501525673021
0.0003846384146073696
0.0003592884427224502
0.0004329649167811151
0.0003964663918526421
0.0003843087673533494
0.0003656386244783031
0.0003341761953609139
0.000332349507555208
0.0003415033792611667
0.0003740090156238805
0.0003761070398165645
0.000400486657130872
0.0004144503325063689
0.0003471259908498135
0.000376860326814722
0.0003559928043198426
0.000423898501469125
0.0003905265126245301
0.0004198242634836478
0.0004683267666161706
0.0003975105194138721
0.0003930436524439325
0.000373169838283796
0.0004422164261206723
0.0004474398613283692
0.000285007899878307
0.0003000343136440887
0.0003135606723761257
0.000342975515798229
0.000320046160276162
0.0003059517137379638
0.0002789693391417649
0.0002388947209629999
0.0002067613313715588
0.0002062667875721615
0.0002271371382967499
0.0002117697662521081
0.0002325410573800407
0.0002334715548078867
0.0002639804484340997
0.0002501974047874232
0.0002477325093067565
0.0003017665850270776
0.0002321325894892764
0.0002810068227204325
0.0002836486589957778
0.0002503186384580713
0.000215583196570229
0.000236504716812517
0.0002602396741759544
0.0002210857256744284
0.0002668374428975804
0.0002438957903809093
0.0002700260602941272
0.0002972185851560053
0.0002565105388370986
0.0002955928167895935
0.0003038730226485786
0.0002625500547206471
0.0002640099989371594
0.0002826702103128704
0.0002930592252744831
0.0003091207122065518
0.00033635264384469
0.0003172342967841795
0.0003004699751947506
0.000275173546802963
0.0002976898070131267
0.0003552110645356612
0.0003353918347008535
0.0003514338902948285
0.0003330301567416619
0.0003156412666164604
0.0003187560167776029
0.0005523331735544845
0.000580965892701559
0.0006155423718239519
0.0005023367779902613
0.0005125125290332548
0.00062646569729704
0.0005429395075490735
0.0006136047217124874
0.0007242996563198839
0.0007481113529455515
0.0006820679098859808
0.0006598414200955963
0.0006379578206174145
0.0006963991782277928
0.0005968121497252586
0.0006670145804842461
0.0007306644297288404
0.0006368297999182413
0.0006445934075676394
0.0006769787856090995
0.0005882353873627782
0.0004882465037585764
0.0004447810505798895
0.0004265357355035161
0.0004031933571411402
0.0004535609154790978
0.0004333270574427929
0.000480261087979688
0.0005270609404362052
0.0005626519327290962
0.0004608592918863032
0.0005018828725762638
0.0004666453076637853
0.0005691206255001903
0.0005198745145145763
0.00050376197708618
0.0004948545726088899
0.0004179862289345075
0.0004635753275274115
0.0004705761042750128
0.0004462712268946908
0.0005260145733004684
0.0005411510807417691
0.0006011688072284025
0.0005113347425961271
0.0004929220919506262
0.000477800198947109
0.0005819574779820078
0.0005616838128393038
0.0003179400525451432
0.0002556510036009528
0.000275508538785038
0.0002831189645641167
0.000282855156196475
0.0002901243081677434
0.0003101425539593469
0.0003732297975414531
0.00035764109394101
0.0003751482469585466
0.0004571175292335452
0.0003255482732797529
0.000412117533376083
0.0004016295463281313
0.0003533645839902561
0.000301576657562209
0.000359421894395189
0.0003778623463295867
0.0003100167595178264
0.0003884688415098285
0.0003441148753159717
0.0003511496751689661
0.0003175934832946315
0.0003813676997606468
0.0003608334722665268
0.0003251270817564658
0.0003875920555047794
0.0003442931280129946
0.0003846285232812549
0.0003940959298997122
0.0004116108411443911
0.0004391860951022137
0.0004165040852543758
0.0003969636000373852
0.0003778233451848407
0.0003665353802599521
0.0003599492451444563
0.0003747527984668644
0.000410693987557507
0.0003404703613705664
0.0003993864179446172
0.0003770753715952497
0.000400239256253191
0.0003729193943480574
0.000444099867829675
0.0004312931469857976
0.0004257481626754416
0.0004120989878865035
0.0004075874824124197
0.0007438290916129572
0.0007855519819047829
0.0008326675669490655
0.0006873205660424733
0.0006942865176211896
0.0008394760661719872
0.0007376657382440547
0.0006606431319438282
0.0006084428580499367
0.0005828450968132201
0.0005440711118271666
0.000614431311466676
0.0005877879135121835
0.0006550553257433904
0.0006716639194174729
0.0006435936907011112
0.0005534232376644427
0.0006108669519837605
0.0006262002977442914
0.0005982964746177678
0.0006866993288600986
0.0004694221728746605
0.0004316341223157992
0.000518226819699172
0.0004834127830657422
0.0004354030260657337
0.0005220844021900399
0.0004657897345853651
0.0004769059743208047
0.0004463840863584972
0.0004908241414277708
0.0005421523489847532
0.0004445893217474004
0.0005307492173899558
0.0004885797574366253
0.0005914658976486809
0.0006196171713978957
0.0006956040735852179
0.000567972953012228
0.0005456194738093122
0.0006118721947779275
0.0006722039038205697
0.0005098845984512798
0.0004620800046916339
0.000447197243285322
0.0004163335781446785
0.000468768020177525
0.0004521243283486813
0.0005039767962855102
0.0005215920743211626
0.0005010379207850329
0.0004278052231580557
0.0004745093794676147
0.0004819528477164744
0.000461684644747013
0.0005386909412159793
0.0003290764013131355
0.0002852581249246486
0.0002919527657146359
0.0002623538104505641
0.0002923333555580157
0.0002980663609715637
0.0003221368758787317
0.0003649542607426576
0.0003285675561465061
0.0003995342068113888
0.0003721824019084224
0.0003346192580361066
0.000404031687366435
0.0003596952317090354
0.0003441422915789029
0.0002723858208468136
0.0003327271953692547
0.0003313994662249387
0.0003037647917422253
0.0003111139596148843
0.0003668825553533168
0.0003777627789791856
0.0003832338465053135
0.0003642323754997519
0.0004200994921245734
0.0003476299901327364
0.0004127355602424357
0.0003850683851792818
0.0007055751832412397
0.000759289262513235
0.0008402608966124047
0.0007104895791090757
0.0006690991983854729
0.0007432765006361584
0.0007994831719037724
0.0005897628765121601
0.0005256463934719193
0.0004871717943135404
0.0004922519229044284
0.000555057152192466
0.0005615040686745187
0.0005136164627821634
0.0006228434978962429
0.0006277288572315066
0.0005173058287524933
0.0005831579845209824
0.0005892649152439278
0.0005480074195247883
0.0006584185032022606
0.0003594969027859832
0.0003892280642653772
0.0004267906117910641
0.000429607907645795
0.0004023962115494765
0.0004052108783617157
0.0004144504771271574
0.0004282332204295002
0.0004347705589758765
0.0004582629809139197
0.0005141497543969767
0.0004220270816270334
0.0004769761125040944
0.000464315421285076
0.0007289182117375558
0.0006675411685849117
0.0006303216527025906
0.0006183306376295327
0.0007066195757337142
0.0006944272117492758
0.000651433993303339
0.0005277885637110236
0.0004699416100141895
0.0005623394853266697
0.0005506580344242729
0.0005058189835043878
0.0004950618664968961
0.0005842600187105601
0.003736667252877722
0.0042465791267364
0.004335319494663332
0.003598705273229763
0.003624442269678171
0.004351270995602491
0.003720303488845041
0.003218198933952572
0.00308085476461579
0.00276429174719524
0.002668881599885855
0.002779748568337745
0.003104670271953514
0.003202060256321777
0.003247416234666431
0.003205356860099507
0.00284482292236392
0.002709263152487335
0.002808157122865717
0.003283935094736338
0.003148554394864908
0.002091847341594185
0.002393460589184059
0.002302167573755797
0.001974818584322976
0.002407975275431141
0.001992440307249078
0.002078397484069528
0.002117080823888684
0.002470590299333593
0.00233894735264896
0.002070907055881741
0.002434961014839503
0.002150968520537901
0.002025706965549934
0.001822249050673893
0.001714108444527398
0.001506490513661812
0.001580381459108237
0.001591646901476689
0.001729880052025068
0.001809899834908063
0.001845586723337991
0.001800940105844636
0.001533363615323434
0.001642521684260263
0.001613063463524652
0.001877347144697962
0.001759827011366653
0.001076702992614212
0.0008905184956556336
0.001001790838013411
0.0009420935911401055
0.0009496354635502872
0.00101176138154609
0.001068342943336954
0.001223585532315581
0.001141104847645313
0.001315743854152329
0.001383581693062643
0.001393810968652551
0.001152296663538339
0.001214327775265071
0.001241345844866071
0.001204037122772097
0.00133980908294375
0.001440471457686854
0.001413354006649918
0.001266169838524492
0.001173820803059875
0.003348167863773524
0.003265752457099272
0.002883550672489565
0.002877149250053473
0.003320223868521081
0.002917505844033213
0.003319681431700276
0.002227268814797811
0.002509759727318412
0.002123047008651699
0.00249941301443167
0.002189299078278843
0.002546734931538657
0.002176427601601626
0.001951668633083223
0.001849136090167564
0.001662060144502196
0.001677137671712878
0.001914048651958775
0.001713541768069373
0.001899695622228787
0.00132867244323753
0.001240671656224656
0.001457510598804204
0.00147277016303672
0.001296068521084029
0.001507425572755076
0.001281010410831046
0.002616438795030923
0.003077541096416783
0.00341072265857591
0.002797786379877618
0.002842847979731446
0.003140078797604206
0.002563675415640254
0.002717030429387264
0.003506803655734206
0.003412792451285722
0.003048055489688741
0.002855912716133846
0.002928922309263614
0.003255454612771667
0.002557593232225487
0.002956989875912176
0.003240872260827319
0.002633978302459677
0.002711614954824952
0.003063233444491718
0.002471700820827062
0.002199143110041748
0.002348350095830245
0.001823200837932278
0.002018966858142624
0.001861420690869281
0.002387656974807952
0.002154494902116217
0.002060021723681946
0.001936577409101408
0.00170553337932424
0.001685926321237256
0.001746397192173056
0.001987072700250625
0.002012547115019176
0.002153785013830652
0.002221286346134825
0.001768410520891885
0.001938923419339007
0.001826145874623095
0.00228555928048404
0.002083859594773635
0.002285480100019608
0.002568879299612323
0.002084966286974152
0.002039984207542269
0.001935549308896128
0.002406212375696083
0.002463303392456685
0.001168638613311429
0.001240952783755144
0.0009896069332499939
0.001091073274879925
0.001010578358824177
0.001263243352925929
0.001144327687781263
0.001277297177156913
0.0014543883347949
0.001204318017671354
0.00143910930354249
0.001489418376769551
0.001235252956546097
0.001247292549831907
0.001100927478528131
0.0009311663763494443
0.001039158097902432
0.0009234734415862262
0.0009532686735949248
0.001065618796341267
0.001075199751690287
0.001335739221083436
0.001509544016315389
0.001381290649969335
0.001654348053521438
0.001557603919840875
0.00141891414946237
0.001295494605553646
0.00115112212134092
0.0009678201331959158
0.001190983178617137
0.001058347517891164
0.0009964736914279623
0.001222783267789989
0.001117245858143363
0.001412612377217997
0.001775049831655394
0.00173933909065725
0.001590176676672613
0.001649060458698725
0.001490708426377058
0.001519270368368612
0.00121605420408157
0.00112890520596058
0.001110236453071608
0.001368633085473186
0.001051567845184277
0.001283693083361767
0.001306703546081833
0.0006691654524577414
0.0005754321088817022
0.0006309636590275012
0.0007070879331417523
0.0005872497760656929
0.0007198506420637954
0.0006555556453031174
0.0006959264669030253
0.0006528750855345858
0.0006442317374410557
0.0007811989024582977
0.0006105269432674025
0.0007345758004489319
0.0007449521503708121
0.0006614631863313328
0.0005655816104672445
0.0006159467183778625
0.0006848697615538543
0.0005808610398584489
0.000701791454233348
0.0006436777723962241
0.000764978589266996
0.0008092647534710951
0.0008594439365315205
0.0009463221837000123
0.0008775684004767383
0.0008239149688202088
0.0007492855374065339
0.0007233966998840442
0.0006850949909821427
0.0008098206872347751
0.0008035921370382849
0.0008288506673626122
0.0007018918546974277
0.0007069747671155793
0.0007556236038095045
0.0007823413715575756
0.0008417785031930619
0.0009196625374194633
0.0008661236683994827
0.0008020469494903593
0.0007348535617715169
0.000795777090892661
0.000894064592376662
0.0009792875162213527
0.0009640380580240958
0.0009130673241938781
0.0008401314098683147
0.000852670003848217
0.00309300450102924
0.003449615699787127
0.003605850201470397
0.002826794076702604
0.002894849824785897
0.003673259352878276
0.003035296227235178
0.003376851762786833
0.004120118624854906
0.004163660169493961
0.003624724703125315
0.003538585856593152
0.003491021384841922
0.003991492115363733
0.003289805472392841
0.003838175211413072
0.004090152116893119
0.003435699265799482
0.003471960713118673
0.003892331380912605
0.003242756938027839
0.00279421336334402
0.002928064586954817
0.002534380395214263
0.002349145595647696
0.002960212178577278
0.002384308539600925
0.00275351189320631
0.002870125013833031
0.003098478924492695
0.002587471840397085
0.002539387501022659
0.003019881787289844
0.00245035923350175
0.002971132219387758
0.002618380622595955
0.00238736478227233
0.002186429238305559
0.002076263611286543
0.002444494402231077
0.002228235029225342
0.002569253261040206
0.002710283647650272
0.002695632512082626
0.002413595688104472
0.002166878996933318
0.00255159453311295
0.002306964195039949
0.002833233280976161
0.001808768289226993
0.002225446518721357
0.001978009347465326
0.002179236981542267
0.001921071334252363
0.002100977520818485
0.001877462842411058
0.00151971217057474
0.001608071894830419
0.001413827081138658
0.001298160119561492
0.001627360638201645
0.001317942232401991
0.001496929402305446
0.001563197929965312
0.001714823700655868
0.001446257154189267
0.001408746334669752
0.001664099401789604
0.001355849545958947
0.00162346992612685
0.0016371540704068
0.001869948754657331
0.001487217151561831
0.001773001017363429
0.001521523966683694
0.001905589499137635
0.00160668684611946
0.001412529384095827
0.001201064622910575
0.001282473809203872
0.001135439931495724
0.001311648496190168
0.001223533226155373
0.001386405848458467
0.00169514882152771
0.002065458345516413
0.001849854821639128
0.001677353902269315
0.001586916261623739
0.001973098282272197
0.001775166810755831
0.001462466849148776
0.001326933697849893
0.001183275166999797
0.00144522725149723
0.001367480884351406
0.001266642613677659
0.001531868834954227
0.0008117810835974882
0.0006603622953805813
0.0006996174716863736
0.0007368390700625822
0.0007122318647336847
0.000752664514806625
0.0007972431047894343
0.0009018865125165879
0.0008233425283511172
0.0008494212152238351
0.000998143663461455
0.0007916466918599906
0.0009664892638284891
0.000937855091211475