/*--------------------------------*- C++ -*----------------------------------*\
  =========                 |
  \\      /  F ield         | OpenFOAM: The Open Source CFD Toolbox
   \\    /   O peration     | Website:  https://openfoam.org
    \\  /    A nd           | Version:  7
     \\/     M anipulation  |
\*---------------------------------------------------------------------------*/
FoamFile
{
    version     2.0;
    format      ascii;
    class       surfaceScalarField;
    location    "0";
    object      phi;
}
// * * * * * * * * * * * * * * * * * * * * * * * * * * * * * * * * * * * * * //

dimensions      [0 3 -1 0 0 0 0];

internalField   nonuniform List<scalar> 
36791
(
1.793740406159117
-0.0002296959955973409
-0.0002346339742325192
-0.4483156860218359
-0.4483213726617146
-0.4483219185955967
-0.4483171808789151
1.794070279185259
-0.000163458669477079
-0.0001664917859436343
1.794309411424049
-0.0001186228133696845
-0.0001205753661999154
1.794485221024539
-8.728478830239717e-05
-8.857706899153615e-05
1.794615524475301
-6.473627425337751e-05
-6.560660422662573e-05
1.794712154914814
-4.803341192979004e-05
-4.862577124246159e-05
1.794783084151048
-3.527292108610743e-05
-3.567668459593718e-05
1.794833705212473
-2.518193082662e-05
-2.545308605656289e-05
1.794867619707074
-1.687504160378261e-05
-1.704845795114096e-05
1.794887121654039
-9.705170292306772e-06
-9.801810787895254e-06
-3.167448842620879e-06
-3.198492311877972e-06
1.793803373017262
-0.0002260771910549409
-0.4483425873506784
-0.4483381234774602
-0.4483496042099744
-0.4483433228325966
-0.0004333539511806795
1.794112901270967
-0.0001614859313558981
-0.0003115009924776757
1.794339202134122
-0.0001174100848384541
-0.0002275135925957381
1.794506656205705
-8.650387897191078e-05
-0.0001682349818601381
1.794631402633792
-6.422179367417409e-05
-0.0001252609097018663
1.794724285356425
-4.769002369626078e-05
-9.322611202506306e-05
1.794792676898656
-3.504298618304759e-05
-6.862147837694012e-05
1.794841601949039
-2.502994649763305e-05
-4.907703616060375e-05
1.794874435565986
-1.67791203224965e-05
-3.292953948987969e-05
1.794893336575489
-9.652228460943502e-06
-1.895395258712655e-05
-3.150528790314196e-06
-6.188433667899983e-06
1.793813502562628
-0.0002200403519537451
-0.4483433886904732
-0.4483436601200709
1.794119533916131
-0.000157809963995048
1.794343736128068
-0.000115051047176651
1.794509861535847
-8.494535961369559e-05
1.794633739884151
-6.317362659410761e-05
1.794726045452913
-4.697749586203553e-05
1.794794051046929
-3.455784324519804e-05
1.794842720891346
-2.470445176482101e-05
1.794875393215064
-1.657111568823689e-05
1.79489420506072
-9.536378630916047e-06
-3.113325854599576e-06
1.793872660325178
-0.4483636544672998
-0.4483683253947833
-0.0004168114869034415
1.794160181611426
-0.0003010629054414976
1.794372355347301
-0.000220745221143701
1.794530558289551
-0.0001637618762000415
1.794649136330921
-0.0001222596182355318
1.794737851885184
-9.119140761150151e-05
1.794803417927195
-6.723975525408064e-05
1.794850452643953
-4.815232033964648e-05
1.794882080611976
-3.233991199547148e-05
1.794900310975262
-1.862610548582279e-05
-6.083247375797087e-06
-0.11203844792699
4.831280910263254e-05
-4.692099820382891e-05
0.4482451100091822
-9.440931621651804e-05
-0.1120377576148893
-0.1120379334546364
-0.1120379717602272
-9.319299860005213e-05
-0.1120531149544772
9.128432366570981e-05
4.700221109368478e-05
-0.0001354210386548525
0.4482685216462077
-0.1120499150308265
-0.1120234877044084
-0.1120516764540039
-8.407515187914374e-05
-0.448238102920925
0.000166061251773843
4.335738821045171e-05
0.448316805834077
-0.1120799781813228
9.094220626589191e-05
-0.0001263817895743541
0.4482889631102136
-0.112104894276265
-0.1121077865292054
-0.1119241077978975
-0.4482594002830087
0.0001648117419904827
0.4483333922934118
-0.1118716757481701
-1.493419064797857e-05
-1.433677264692915e-05
0.1119009449218602
-2.625283289598129e-05
-0.1120260410770708
2.067011650197514e-05
-6.826310986045574e-06
-5.493304858994467e-05
-0.1119018914138925
5.378321421822822e-05
4.195475414565897e-05
-6.594905491771564e-05
0.1119270355490292
-2.516765022164681e-05
2.550574513576593e-05
2.181277431638523e-05
-4.295150906122605e-05
-0.1120323143145763
-4.919529184594799e-05
-0.1119416435112885
9.725401161608559e-05
3.754015363116536e-05
-0.0001056610128459676
0.1119617056507378
-0.0001010888584369067
0.0001951178934737063
5.062237232600354e-05
2.568687982518192e-05
-4.351236207134068e-05
3.399454428443943e-05
-0.1120481420884721
-0.1120341285092912
-0.1120322411996037
-0.1120444146552888
-0.111893105881383
5.740329800672201e-05
-1.360386698099566e-05
-7.008036991305949e-05
0.1119193847149722
-0.1119097298026519
5.268947708003675e-05
-6.46214925306688e-05
-6.709796438197912e-05
0.111933826733857
2.470950839078379e-05
-4.5469772961937e-05
-4.840455992294347e-05
-0.1120359810069074
-0.1119482612698359
9.536754108135802e-05
-6.014870827275587e-05
-0.0001036342317059453
0.1119674813768921
0.0001964736506376852
-0.1120431968620233
-0.1120447598562057
-0.1120460352458727
-0.1120457475651862
-0.0002370388710412354
-0.1114278753328524
0.000461351145284484
0.0001850032910475919
-0.000482673767202086
0.1115012335347677
-5.505991642139437e-05
0.000108786228137091
4.206204038668718e-05
-0.1119194755750943
-0.0001179562882835939
-0.1114733782770767
0.0004415012496176836
-0.0002818073869104785
-0.0004624050844639195
0.1115390506278346
0.0001065469444450073
-6.722700135597393e-05
-0.1119270823152476
-0.0001155588141159572
-0.1108831145188027
-9.087735497604445e-05
-8.184621965449453e-05
0.11105583338502
-0.0001699843532951347
-0.1114775319604444
0.1115560895039973
0.0001316060575681435
-4.018026261387272e-05
-1.690382965835924e-05
-1.618717354469857e-05
-0.1118385862122295
-0.0003007283524935097
-0.111144835266721
0.0002854561593510504
0.0002356364408328127
-0.0003423883135987627
0.1112668593326313
-0.0002725880732365775
-0.1116003481206133
-3.720958136462902e-05
0.1116592116765887
0.0002509340986290195
-6.187938956436763e-05
6.051123724848391e-05
4.73126363239306e-05
-7.411900500614661e-05
-0.11187371689293
-0.1110817494865959
0.0003312281190939176
-7.284392812361311e-05
-0.0003913413105298687
0.1112147030189137
-0.1115102138033093
-0.0002040756679688727
0.1115831029709575
-3.879856050618275e-05
6.481509833357903e-05
-1.531416676669998e-05
-7.901614372086904e-05
-0.1118635922717184
-0.1112097202747959
0.0002721186217487386
-0.0003268027015243334
-0.0003560084458639487
0.1113196844478459
-0.0002511011242685378
0.0001395989065425022
-0.1116635680376152
0.1117123109078433
-0.0001680514490122824
0.0002308107965128203
5.921178631052011e-05
-7.254106022952616e-05
-7.547377107981987e-05
-0.111882806147281
0.0005641758518333238
-0.02748362387982646
-4.098299196567773e-05
0.02751768966467235
-0.0005572586447142325
-0.0002773633529706205
0.0005384447872660743
0.0002172832943489408
-0.1113458793333602
-0.0005603607280802834
0.0004464170900198874
0.0002639321028135747
-0.02765304761583958
0.02766709183168925
-0.0002809921808904316
-0.0004434012277945626
0.0005133574904141328
-0.0003283069958657048
-0.1114009009766948
-0.0005348911478545303
-0.001151470126619568
-0.0007690451214619834
0.02746842987014373
-0.02748838352644532
0.0007427871763680654
0.001197681728013069
0.02757934771569439
-0.0006773158706675318
-0.001094453878651021
-0.02760989779435345
0.0006508497012784364
0.02756096408469712
-0.001048014153438491
-0.0007774690561957652
-0.02759063235209757
0.001086106355517027
-0.0004227854081521827
-0.006527062928394948
0.0004210441215622153
-1.551592716672576e-05
0.006544318258910031
1.88324176647046e-09
-0.02667014519011636
0.02681299468637917
-6.067155801405196e-05
-8.218391900295369e-05
-0.0001113107403907068
-9.906822533763535e-05
-0.02767078967949909
-0.02766853117479161
-0.02766526163183805
-0.02766815913878393
-0.001040601437029148
-0.0006870413474293507
0.0006585193499825899
0.001075605036119838
0.02746194826844021
-0.02741872154680566
-4.439953011571461e-05
0.02746068656032263
0.0005666103684325807
-0.0003582291226193481
0.0003386631962526107
0.0002822738818708842
-0.0004043550988865153
-0.1110031881234343
0.0005045379405832618
-0.02711544034032302
0.0271883311177458
-4.670085103276295e-05
-0.0005307339092899941
0.0003984243751585065
-8.652277635936893e-05
-0.0004680209313513425
-0.1109256349880115
0.0002841748424085913
-0.02760945860223682
0.02762775040738667
-0.0003020977217457302
0.0004460481641655237
0.0003208715139204378
-0.0003846059324828032
-0.0004222703169314762
-0.1110819446620574
-0.1118847422590692
4.385712378987676e-05
-1.389052191750467e-05
0.1119121769811242
-5.590231297958326e-05
-0.1118951633908623
4.095038311411725e-05
4.270134193139285e-05
0.1119211971929763
-5.548732873883466e-05
-0.1118826008145151
4.225703384956163e-05
-1.453747278089695e-05
0.1119103685821941
0.1119780516299889
-4.070990389079766e-05
-0.1119584613800049
3.101643275103558e-05
-9.90008624527753e-06
0.1119707668479224
-0.1119500754826221
-1.052366678399102e-05
-1.017054937126321e-05
0.1119769032033897
-3.951954484426594e-05
-0.1119571422690626
3.004208688271149e-05
-1.02834763640914e-05
0.111983900764387
-3.842853115852588e-05
-3.974112101938895e-05
-0.1119652496577306
2.922537784762911e-05
3.029316767123902e-05
-3.65601989570033e-05
0.1119956939757003
2.782846279457358e-05
-8.914300255243791e-06
0.1120346125322988
-6.754524454440052e-06
-6.830497159587036e-06
-0.1120210293855353
-2.587327124828874e-05
0.1120376182495349
2.123153016938793e-05
2.164945893134982e-05
-0.1120291202221511
-2.568253124985048e-05
0.112037279716577
2.021487346555815e-05
-6.710066862035382e-06
-0.112025101991934
-9.424895114726e-06
0.1119893222059076
-9.133637866485924e-06
-3.553742079454025e-05
0.1119946690823914
2.700093312998201e-05
-9.229391351671299e-06
-3.458758397185913e-05
-3.570954369269685e-05
2.632203230847585e-05
0.1120006476786264
2.722818108490066e-05
-0.1118896520430557
-1.428104660263256e-05
-6.80182379566574e-05
0.1119164639988339
-5.086707261270385e-05
-0.1119301112947673
8.7782998981546e-05
3.882397454778382e-05
0.1119516254054727
-0.0001001832300679418
-0.1119192273725016
9.046581813559773e-05
-1.320478657701626e-05
0.1119421495710107
0.1119808853274398
-0.1119617302718909
-4.85509783262908e-05
-1.012362208211249e-05
0.1119980330393329
-7.223869246492249e-05
-0.1119813148126294
6.494562695485837e-05
-9.425161198661521e-06
0.111987741711574
-3.908602972534206e-05
-0.1119696821578149
2.980756577777771e-05
-4.720962099441638e-05
0.1120048927670538
-7.057049295538922e-05
-3.660238959035675e-05
-0.1119887076332171
2.778102697435985e-05
6.320672172723083e-05
0.1120435314324465
-6.597539194663108e-06
-3.421187052321528e-05
-0.1120284045539215
-0.0001543665127627381
0.1119397269458887
0.0001714378095613028
0.0001245075060429808
-0.1118861878552373
-6.989966346375442e-05
0.1120366604236012
6.367094736915821e-05
-1.22119787885833e-05
-0.112018219728717
0.1119981292476719
-4.368509720925469e-05
-9.096243816353358e-06
-6.500793941349884e-05
0.1120130786518718
5.840516215044178e-05
-8.442835282523676e-06
-3.505063026522244e-05
0.112003890888456
2.679426509361346e-05
-4.248039570517593e-05
-6.389298112097204e-05
-3.293334710186009e-05
0.1120205488442059
2.468728731912242e-05
5.648296370013054e-05
-0.1119313138620885
-1.276414947896163e-05
-0.0001088015940029571
0.1119526963755186
0.1120052637923852
-0.111989467092676
-7.887939757351931e-05
-9.155994599036571e-06
0.112011570278888
-3.563257487751994e-05
-0.1119964711519197
2.707803063942065e-05
-7.711507572045986e-05
0.4482288010897815
8.247464888351541e-05
3.192513462828978e-05
2.577786012126354e-05
-0.1120413503279502
-0.1120313323807692
-0.1120323066709004
-0.1120404577422555
0.1120194097716647
-7.095286184498218e-05
-8.201056801207353e-06
-3.19981170022742e-05
0.1120250187745393
2.431757101088754e-05
-6.966093080572969e-05
-0.1119032074934223
4.011143584137593e-05
-6.826808648820095e-05
0.1119281513080876
0.1119827342392403
-0.1119638595793653
-4.986801433659593e-05
-9.720181675458726e-06
0.1119884500761064
-3.76893131652248e-05
-0.111970497570038
2.86751589650628e-05
-4.867947290653047e-05
0.1120448700209458
-3.451811217836109e-05
-0.1120299104962204
-6.696108716102535e-06
0.1119997765882887
-4.484219407283297e-05
-8.764408172497932e-06
0.1120536951406624
2.118272205235371e-05
-4.298085968734707e-05
-0.1120330607657261
-3.384405300660265e-05
2.582398818101594e-05
0.1120045284823448
-4.376788513092826e-05
-0.1119370818664729
8.605965107198904e-05
-6.217846950863524e-05
0.1119577011533783
0.1119922953362646
-0.1119748595536469
-4.632292405714883e-05
-4.788820150237898e-05
0.11200903298728
-6.947613482253977e-05
-0.1119934046775777
6.220124867501054e-05
-4.495581317412191e-05
0.4482240710200802
-6.873087194621957e-05
-1.493057462595426e-06
0.0001957156226346235
3.875448789512209e-05
-1.127688918375891e-05
-6.606594045342751e-05
2.637764477848165e-05
-0.1120379824262087
-0.1120391283933093
-0.1120224858427825
-0.11204319571778
0.1120078891776233
-4.15576812769012e-05
-4.293084338390224e-05
-6.283764894983406e-05
0.1120237760603509
5.562994030405835e-05
-4.046871153917664e-05
0.1120156714731522
-0.1120009403060438
-7.601575588189744e-05
-4.382412100199927e-05
0.1120296533535994
-6.909378442898626e-05
-3.972386198203282e-05
0.0004936509370068844
-0.1113530471663476
-6.457120443639956e-05
-0.0005155345839214228
0.1114395020177093
0.1116418400742223
0.000314080026835314
-0.1115826284687803
-0.0003326188004007237
-4.067283188710475e-05
0.1116776579785377
-0.0001520483465598249
0.0002977592701016381
-0.1116253408344523
-0.0003156941269591218
0.0001176660593320262
-0.0002897875395114787
-3.520415079686013e-05
0.1116942436914385
-0.0001322453065127718
0.000259399072213786
-0.0002760419798860319
0.0001021128517138774
0.1117244333410676
0.1118188689268145
0.00018251888270715
-0.1117820489054857
-2.341920857456525e-05
-0.0001959196954603097
0.1118374627611525
-8.902231930818538e-05
0.0001752954756749077
-0.11180380543734
6.836467867420163e-05
-0.0001882951588549827
0.0001122697196538494
-1.432071737260788e-05
-0.1119075807991008
-0.0001216820653216403
0.0001608516548041871
0.1118517506775287
-2.060350858397563e-05
-0.0001731298969719843
-7.857195670678312e-05
0.0001548746769999422
0.1118677084254598
6.024967806510323e-05
-0.0001667980627185198
0.1117000041212188
0.0002875372078683506
-0.111651845261278
-0.0003050800807482179
-0.0001826643335704351
-0.0002673843082707806
0.1117433586779697
-0.0001593166791267028
0.1118492551573302
0.0001707011278997969
-0.1118175558046373
-0.0001079807727526472
-0.0001834420271975483
0.0001510617813124823
0.1118778606805719
-9.548319584967715e-05
-0.0001627560655104712
-0.1110059239001151
0.0002594228616632125
-7.64152922497788e-05
0.1111541404184715
-0.0003125480117120881
-0.111091628229798
0.0002211190229291108
0.0002450079683982081
0.1112235054094501
-0.0003070019438795716
-0.1109761428046489
0.0002375047117593426
-8.593116885078585e-05
0.1111315712056218
-0.0001989468392280228
-0.1113862122076981
0.0001544220068562455
-4.679640558921934e-05
0.1114249441163357
-0.1113218563816591
-5.354800642011897e-05
-4.954172866989832e-05
0.111466911218586
-0.0001873520890411104
-0.1113727172015064
0.0001442536592708246
-5.109558730877685e-05
0.1115162285081528
-0.0001770379911675185
-0.0001899480492486736
-0.1114328933991624
0.0001362702921682188
0.0001473806392472742
0.111734367638463
-0.0001094596009702104
-0.1116829534157686
8.421715926464051e-05
-2.617231400106508e-05
-4.550804843543906e-05
0.1115128240753833
-4.237339194522536e-05
0.1117093206966508
-2.891240754356775e-05
-0.1116530852447815
-2.73238655632542e-05
-0.0001607636398566389
0.0001235821187833283
0.1115476436350082
-4.355089540226645e-05
0.1117298822976638
-0.0001046044052791275
8.006987941983057e-05
-0.1116774610253506
-2.788674645102273e-05
-0.0001525431598823732
-0.0001628005965660228
0.0001172209790147923
0.0001259928510349618
0.1115883584344797
0.1117536919326323
-0.0001002608370509473
-0.0001056494138728243
7.672190567894169e-05
8.125943933788557e-05
-0.1117057630267304
4.957587280857165e-05
-1.565512825423612e-05
-0.1118538494510259
-6.303095649610136e-05
4.611102349881291e-05
4.820033982114068e-05
-0.1118659325605247
-6.253855727950367e-05
4.766650631804424e-05
-1.643067251163363e-05
-0.111851298091076
-9.542723674337017e-05
0.1117793834292282
7.32963265136361e-05
-2.288552066493786e-05
0.1117582593315065
-2.511358809616796e-05
-2.382589749372166e-05
-9.145005626126613e-05
0.1117756925572904
6.991620465690575e-05
-2.427640810594737e-05
-8.789259353303441e-05
-9.230365578627447e-05
0.1117958335563882
6.717801933984346e-05
7.087660609049487e-05
-0.1110361049785807
-8.266372211901194e-05
-0.0003680418947021591
0.1111798086514337
-0.0002546297494803026
-0.1113507816907194
0.0004309030741818665
0.0001989456647728928
0.1114369138465772
-0.1112669385182304
0.0004617416239310592
-6.955656301686273e-05
0.1113684043943137
-0.1115332430296973
-4.31603184276453e-05
0.0002901352544493418
0.111639297780644
-0.0001611070870638632
-0.1115799689354588
0.0001247609901465796
0.0002747765218708574
0.1114934996677741
-0.111404898387204
-0.0002264283912164124
-4.952497846522894e-05
0.1115407233394379
-0.0001842314095127876
-0.1114623419135121
-0.0002140839245968275
0.0001428959169393479
0.0001078545981871804
0.111691863569745
0.0002385775916222986
0.1117972016989119
-0.1117567283301071
-2.451152337584165e-05
0.0001665570372368919
0.1118170419624782
-9.309380736155524e-05
-0.1117800387051187
7.151996574883412e-05
0.0001598660598666619
-0.0001947161365948886
0.1115697527677888
-4.230060335846865e-05
0.1117430366466827
-0.0001273945151892414
-0.1116930172564752
-2.722928038243903e-05
-0.0001582261114088589
-0.000184856580130939
0.0001224152076739335
0.1116088476632546
0.1117660601761505
-0.0001032062132113322
-0.0001221520658860054
7.936325732167632e-05
-0.1117203259915529
-1.612531953863752e-05
-7.658013243427126e-05
-0.1118594851484582
-5.704435844577915e-05
9.837037648008362e-05
4.358843502619214e-05
-0.1119062395196861
0.0001015622887539783
-1.484484468645221e-05
-0.1118936750969608
0.1118331336602987
-2.150599776658838e-05
0.0001464256911073569
-8.195092582319354e-05
0.1118500975904047
6.286288676217401e-05
0.0001409070880174208
0.1117868715787802
-0.0001115462583669569
-2.373873011902198e-05
-9.029655008774284e-05
0.1118063864791319
-0.0001072445204360336
6.932217383148753e-05
-0.1111609673826077
0.000210726427007106
-0.0003695196898669378
0.1112793312553517
-0.1114260298702803
-0.0002380671797098515
-4.506474008454691e-05
0.1115468622315428
-0.0001705872216439688
-0.1114700436899208
0.0001312645258230252
-0.0002274438951173129
0.1117502020362329
-0.1117017637708484
-0.0001324565665646308
-2.54416400406466e-05
-0.0001473812202129645
0.0001132229490350031
0.1116137838433557
-0.0001955639373457036
0.1117687515504331
-9.750388102486305e-05
7.459731294642134e-05
-0.1117235959780194
-0.0001278984183155633
4.511413281651288e-05
-7.686360662351174e-05
-0.1118752771898803
0.1117927845630318
-0.0001157231378868943
-2.22871245838073e-05
-8.562773570286453e-05
0.1118086167617482
6.543519884394246e-05
-0.000111976330448904
-0.1114015220361702
0.0004119549631026381
-0.0003023360288518698
0.1114787746021511
-0.1116089215930857
-0.0001933837777731144
0.000265167454188155
0.1115700682329761
-0.111497816475544
-0.0002063701070548492
-0.0002207002816671554
0.1118296158107439
-0.1117947592043391
-0.0001128625214613789
0.0001556132355126503
-0.0001786664980245277
0.1116332717564923
-0.0001901443572865648
0.1117806276957554
-0.0001188234412981546
-0.1117375397495906
-0.0001249745993042865
9.632096608592915e-05
-6.962978817580481e-05
-0.1119142704583798
0.1118608830144456
-9.954515768964671e-05
0.0001373888093666586
0.1118187761239264
-0.0001045048296798054
-0.0001095678844867806
-0.0006102678551792634
-0.0009959087001050308
0.0005824240770907824
0.0275624987567896
-0.02718648888448801
0.00145895888063375
-0.0001124698917434176
-0.001375738421412319
0.02721573831700847
0.000629076741045869
-0.02744766922722273
-4.605628585946965e-05
-0.0006189751077831168
0.02762111856912457
-0.0002922274272982362
0.0005167166331454279
-0.02760428714444467
0.0002696342132126343
-0.0005109548437386632
0.000469259244020523
0.0002427342740063279
0.02763861073647451
-0.0004655535826374761
0.02770305266464052
0.0002798964679147807
-0.02768210508621402
-1.891895748851605e-05
-0.0002819250888524548
0.02775920878182753
-0.000133662040953758
0.0002476623852857882
-0.02774096609693642
0.000123786737331384
-0.0002560297665523115
0.0005797595848253014
-7.607847204643062e-05
-0.1112548043412741
-0.000601923937842717
0.0002553399586319635
0.02772302858506505
-1.754366031606084e-05
-0.0002577722187540335
-0.0004597490171418102
0.0002013504491760274
0.1111511256385261
0.0003653063825362625
-0.0009017748879637401
-0.02775370767194651
-0.02776331852377892
-0.02776593012793361
0.0002514270601197948
0.0002215877866875507
0.000212891693527081
0.0009539954091995229
-0.02765501364370096
-0.0006246569448079106
-0.0009161128379362292
0.02763152016206188
0.0004900057736868497
-0.02764009285438009
-0.0003100239453630506
-0.0004851640171517158
0.02778740415776857
0.0002383712067301201
-0.02775618589049647
-0.0001529903243065092
-0.0002502611906704135
0.0008319261579948994
0.1112349395893702
-0.0005319998885721096
-0.0008454847129261038
-0.02780080631680553
-0.02780089242774523
-0.02776002726076781
-0.001667011819985833
0.02697824874171862
-0.02692398808926461
-0.000149967859674456
0.001762719027206177
-0.001530995474226996
-0.0005368182638525383
-0.0270802393442186
0.0004244576342736273
0.001612369897326119
0.0271112255506955
-0.000193996237137374
0.0004053834539064791
0.006613456767575544
-0.00658754653322906
-0.0004163632329105426
0.0001790657817954362
0.0004502942283267142
0.006545720144274837
-0.006508529186863384
-0.0004595273631120295
-2.795782262641113e-05
-0.02716885000937002
-0.000128811058751727
-0.0015558396363543
-0.0004639902442373196
0.02729192079875198
-0.02728919770391136
0.0003656830731171557
-0.001435411398016002
-0.0002932722440203793
0.02769724916812633
-0.02773748990535315
0.001226192634806696
0.0002290538079265444
-0.001121733461483128
0.0276478439113143
-0.02768541222040664
0.001316840570210417
-8.001657831283368e-05
-0.001199255682804816
-0.001448898895194199
0.02719045292466586
-0.0006273689252527896
-0.0271726691965148
0.001521665828393581
0.0003920665476922185
0.006643979905402975
-0.006609195162815746
-0.0004034052693000233
-0.0002174422581322706
-0.00108095287124976
0.001237642852292389
0.02707739761732765
-0.00124349898216873
-0.02704816249901519
0.001057573882815671
0.02783771281269086
0.0009620670590551987
-0.02788307202383072
0.0004275589959091161
-0.0004517034277894809
-0.0008925634160366295
0.02735498311828122
-0.0005446964387503016
-0.02736077035634155
-0.001362405462672431
0.02772721335384905
-0.0003482945073925788
-0.02776887361238468
0.001170726479367475
-0.001074043957503562
0.0007528821631750068
-0.02784658290383831
0.0007815095838101836
0.02780053152255748
-0.000762441996353907
-0.0007258983693574588
0.001113499313644489
-0.001121244829428543
-0.02722816895818374
-0.001077359273103366
0.02723232087580395
0.0007833966268711814
-0.0007931184292545921
-0.02765938254377528
0.001014365801061541
0.02761951194688081
-0.000964773401780093
-0.0002228717409271904
-0.006629766179895018
-0.0003476236510354439
0.0002139065958174336
0.0003474067006137705
0.006638948275425861
-0.006047332439744159
-4.571304307392928e-05
-2.261463064521093e-05
0.006115664788889541
-4.675427198840214e-09
-0.006244378457002035
-0.0003382027575664081
0.0003211718782955508
-3.735697140434314e-05
0.006298766307678096
-0.02650556944932764
-6.877541891815813e-05
-9.580638317994436e-05
0.02688875063595069
-0.0004867194231913837
-0.02675870828676787
0.000439417757041457
-8.274068303230777e-05
0.02703369050422867
-0.0005769842616507372
-0.02694022378434679
0.0005388918474151097
-5.53808793509304e-05
0.02719159528061619
-0.0003909737915827459
-0.0005015688335197177
-0.0271193054147693
0.0004675140477987643
0.0003527387114614289
0.02742373821486853
-3.17909033748331e-05
-0.02736537830822613
-2.657255933165793e-05
-0.0004290090181541183
0.0003871150309886042
0.02700198084326451
-7.133622018368533e-05
0.02749629379597012
-0.0001918174429431545
0.0001720785555463382
-0.02744788775735464
-2.866715121684473e-05
0.000469141733823496
0.02711848888910497
-4.940829759163473e-05
0.02752619329010735
-0.0002153209650349662
0.0001959050561814258
-0.02748360593737129
-2.317465552397426e-05
-0.0003495029230422101
-0.0004410729999092034
0.0004093440996405592
0.0003151074527866421
0.02725771965111915
0.02758517044307737
-0.0001674299035043309
-0.0001947147190640166
0.0001769779666312961
0.0001501104657909191
-0.02755011425292943
0.0003133409552534366
-9.119349553414808e-05
-0.1108296523211694
-0.0003739960226560729
0.0002630790851446213
0.0002945590651033583
-0.1109366071613458
-0.0003669641177615819
0.0002845205137877364
-0.0001039110147141791
-0.1107897881860385
0.02747571080734978
-2.816662151719592e-05
-2.380918779348331e-05
-0.0001727707467390868
0.0275397497323021
0.0001548581620277976
-2.554335165530656e-05
-0.0001928980002784405
0.02756490410854863
0.0001751372966925133
-2.095300266721386e-05
-0.0001516401487633723
-0.000174952999875907
0.02761699659052359
0.0001588022909699863
0.0001359647101770544
-0.006644203444424823
-0.0003275481601253375
-0.0002362710229266587
0.000336777639237378
0.006648373247285764
-0.0001291843343927153
0.00152827787812888
0.02703811407860651
-0.02737353803366882
-5.013778092158632e-05
0.0006340310088113378
0.02757366073438744
-0.000315898727181444
-0.02755138141186872
0.0002919244268581125
0.0005184116109126778
-0.006577118053278827
-0.00018464738588987
-0.0003664725417701731
0.0001723036225944683
0.000375016468114783
0.006580917890229034
0.0269464611866345
-0.0005280428224768266
-0.02682589763219085
-7.924015519317407e-05
0.02723306620390193
-0.0004816864151137875
-0.02716642390500424
-0.0004246145399057554
0.0004486848645109479
0.0002617063740090499
0.02759601827841802
0.0004693701683101237
0.02767849614949758
-0.02765453523632125
-2.026787913694082e-05
0.0002762034338700044
0.02773557589525413
-0.0001418958378810157
-0.02771829938800994
0.0001287855674256449
0.0002434961484767191
-0.0004658142968394466
0.02705171582099948
-6.844935571748357e-05
0.02751534049345617
-0.0002097519748940853
-0.02746957915801306
-2.782680352294519e-05
-0.0004243504487904198
-0.0003799244919178983
0.0003935844490992492
0.02729425377244967
0.0276009601982321
-0.00018927174170171
-0.0001833293455333258
0.0001719456338271884
-0.02756773464837281
-9.959361249331986e-05
-0.0004382778460477461
-0.1108651976378635
-0.0002995955902270204
0.000505428198788699
0.0002350171386520329
-0.1112531866506459
0.0005449794381455359
-8.253815135869182e-05
-0.1111496202202337
0.0277001021044285
-1.855123820263964e-05
0.0002522852418729927
-0.000107465412131991
0.02770575634047052
0.0001167749060285896
0.0002218605100090603
0.02755650984945162
-0.0001891131278090898
-2.482697495519686e-05
-0.0001700947334107503
0.0276312782704498
-0.0001662358545676621
0.000154372366937838
-0.006566796151067504
-1.481138622826895e-05
-0.0004218987259786876
0.006580718723064528
2.132035719481853e-09
-0.0005811237790834412
-0.02732020411124084
0.001269769230601943
0.02731103826291204
0.000525555861564298
-0.00120503546475587
-0.02703623166015781
-5.216397284938082e-05
-0.0006040355029740433
0.02725985988265143
-0.0003685380842015825
-0.02719903241984909
0.0003324179979256872
-0.0005262762100668106
0.02755149580763203
-0.02751261673823847
-2.229916754649982e-05
-0.0002319039803688701
-0.0003306328716746339
0.0002980162284616612
0.02731636864557185
-0.0004649651196531529
0.02760746995819401
-0.0001612879401695579
0.0001445594836558243
-0.02757539533530448
-0.0002100608854780881
0.0002495162976803907
-0.0004392535384698337
-0.1110243546507422
0.02758704525702504
-2.019904640267177e-05
-0.0002082511980581026
-0.000146157984716078
0.02763684242709875
0.0001310936115964042
-0.0001892610957307193
-0.0007001158161929618
0.0009830770887190041
0.02754495687379009
-0.02737276221265975
0.001206548469829617
-0.0006296145993932251
0.02736150978767992
-0.001146805224604217
-0.0275918035968197
-0.0003345797581578423
0.0004910317991726737
0.02729776513840055
-0.02724182676045587
-0.0004003800484991748
-0.0005057828287878424
0.02775163854249257
-0.02773412904890305
-0.000158356055575111
0.0002373219307917837
-0.0003595351451721829
0.02734995418381225
-0.0004476372207200501
0.02762259991397206
-0.0001767464256627827
-0.02759202979039684
-0.0002043833798424632
0.0004812522950231263
-0.0003541215723727641
-0.1113148908585948
0.1111059913826355
-0.0005894578991917312
0.0001560147489255339
0.0001307554888565019
0.0001181910581595016
-0.02775237317898856
-0.02773938188620997
-0.02775028602156543
0.0002324163355300005
0.0002026673215864243
0.0001871952280453528
0.0001743667105247784
0.02765174330144258
-0.0001607610264902881
-0.0001846350791885913
-0.0002373096516158375
-0.0003762291060740674
0.0002262605634169813
-0.006618210674445254
0.0003757226888000532
0.0001287215106689429
0.006557879481707875
-0.0004334481884733785
-0.0001440140700396471
-0.006541985383545594
0.0004328466496812672
0.0001693322640902171
0.0003302139442097452
0.006281966358753871
-0.00623493421603314
-0.0003567509380879112
-0.0001898274129315624
-0.0003184261237008285
0.0002851683800777436
0.006396229428141716
-0.0003082115433033326
-0.006357223160562235
0.0003024630193453363
-0.0003641591810634337
-0.006632985239295415
-0.0002491613837258437
0.0003647927080123672
0.0002058057668163367
0.006598195753403982
-0.006578336765167053
-0.0002273998152172054
0.00039380160783142
-0.001190988335182345
0.02693669208313225
-0.00671351432555188
-0.006732112290902026
-0.006721164227364495
-0.006725369325559004
0.0003092276540857752
0.0003039555456840616
0.0003013548390272589
0.0002986910482232191
0.0002994307778721725