/*--------------------------------*- C++ -*----------------------------------*\
  =========                 |
  \\      /  F ield         | OpenFOAM: The Open Source CFD Toolbox
   \\    /   O peration     | Website:  https://openfoam.org
    \\  /    A nd           | Version:  7
     \\/     M anipulation  |
\*---------------------------------------------------------------------------*/
FoamFile
{
    version     2.0;
    format      ascii;
    class       volScalarField;
    location    "0";
    object      Phi;
}
// * * * * * * * * * * * * * * * * * * * * * * * * * * * * * * * * * * * * * //

dimensions      [0 2 -1 0 0 0 0];

internalField   nonuniform List<scalar> 
12675
(
13.9946163285168
12.66239533720499
11.32992934735917
9.997285752667571
8.66451158320638
7.331640636646474
5.998697922120877
4.665702528056435
3.332669537447714
1.999611358354925
0.6665386950574945
13.99477850181024
12.66251074466215
11.33001309915585
9.997347378737933
8.664557289248284
7.331674549891615
5.998722826019478
4.665720307367948
3.33268145180898
1.999618210539812
0.6665409313856033
13.99480326217759
12.66252798175972
11.33002541015092
9.997356322310456
8.66456385220425
7.331679376958721
5.998726345853107
4.665722806614018
3.332683120010367
1.999619167489897
0.6665412433068675
13.99495861825367
12.66263940103603
11.33010664015751
9.997416296663488
8.664608454963021
7.331712544690725
5.998750744882099
4.665740248808846
3.332694819789457
1.999625900502048
0.6665434414222734
15.65937971595119
15.65957487139707
15.66000058518305
15.6597233657355
15.66013455108439
18.4246002329118
16.15451785696917
18.42528381504011
16.15471005572781
18.42623476671925
16.31749573349941
18.42507686399241
18.42546336515666
16.15479231685561
18.42639556282672
16.31766093929793
22.31087783668216
18.7504795272347
22.31165260447714
18.7506594920221
22.30231773988827
21.01421625682264
18.74864232818237
22.30616870464821
21.01647547559161
18.74941343154932
22.30512582398592
21.0147718551597
18.74918103275228
22.30715164319115
21.01764601418
18.74961568596435
24.95734539004679
22.63363444109413
24.96590389505199
22.63454101052077
26.39540166244276
26.40207294943232
26.40042910206098
26.20915359129657
24.92071671026881
22.62349641642552
26.23627441911253
24.95407705178732
22.62810546886903
24.93744773944315
22.62687985698159
24.96331775250172
22.62927635019398
18.42488923980056
18.42512802917824
18.42484666195242
17.45220615257689
17.45200203689992
17.45217708717936
17.45237648159218
17.12785593406243
16.15438416144236
16.15463617701776
16.15450055983975
17.12767291913352
17.12783019514195
17.1280093207574
18.42500738387015
18.42595306544422
18.42569733935245
17.45229155758512
17.45278552465894
17.45248779182036
17.45296832041177
16.15457495061992
16.15545231322158
16.15496800337479
17.12793313111943
17.1283774289588
17.12810950548339
17.12854035515548
18.42598752526023
17.45299476776815
17.45317273149481
16.3174130032206
17.12856572781779
17.1287254244801
18.42531074736098
17.45233921397027
17.45250637649323
16.15460366504514
17.12797543203592
16.15472074448648
17.12812603834175
18.42611932581117
17.45261554553826
17.45308795628645
16.31737639125217
17.12822406939184
17.12864799866812
17.45328919750456
17.12883001116853
22.30964718519472
21.34064140539803
21.34142120707144
21.01726504104514
21.01794109430604
20.0462916084114
20.04674313364698
18.75020236541249
19.72240247083028
19.72280013806295
21.34191818109796
21.01837334157443
20.04703410544297
19.72305695257345
22.30404319615232
22.30534186611765
22.3037090090563
21.33711669422531
21.33609205854203
21.33693720366485
21.33791504040252
20.04426815250942
21.01334394454988
20.04371146913132
21.01406752979033
20.04417943944545
21.01490251644788
20.04471649701045
18.74896918289579
18.74923815762073
18.74892040224274
19.72062377728077
19.72013964366516
19.72054805623843
19.72101614796421
22.30459825606622
22.3095415092266
22.3082172997215
21.33973165635475
21.34055873194423
21.33747987868139
21.33842784010108
21.01718973147617
20.04576293302701
20.04623538123468
21.01453318998854
20.04448243151592
21.01534436560064
20.04500690771088
18.74910154840865
18.75016442229803
18.74987717036246
19.72193655569223
19.72235153555026
19.72081294605657
19.72127073340754
22.30636343752813
21.33776695721067
21.33853589060576
20.04462592409896
21.01543463448681
20.04506181490308
18.74944417596262
19.72093568371814
19.72131784489493
22.31037377327116
21.34108531470274
21.33903000531673
20.04653966079664
21.01586153181432
20.04534423993777
18.75035087328647
19.72261939431035
19.72156587006041
26.24230309668098
26.22487826645797
25.11656086004021
25.12419055181814
24.96417855625677
23.83793311295229
23.84127251015412
22.63218704595161
23.67744646305397
23.60036246463038
26.24629256554015
25.12610085935627
23.84214626596255
23.6018651664087
26.37271164176656
26.37838356361181
26.31000116448305
26.30027260522216
26.38237135816396
26.38725476959333
26.41039684284128
26.40734776822149
26.3818930795316
26.31253738229671
26.37413643576377
26.41995717034252
26.3902883176559
26.4123143190432
26.41547370248608
26.38120252751165
26.40176242051509
26.22985682411724
26.15360782930927
26.18432011555191
25.07521962174608
25.08584192468859
25.09075851488552
25.09928445996161
23.8210192834392
24.93007260640269
23.82514700599938
24.93414954866026
23.82643899422542
24.94176073415407
23.83003879032822
22.62557759641474
22.62712451340397
22.62515714683532
23.66215073101538
23.66585813158217
23.66697690895646
23.6702350443088
26.23243905087324
26.21642502410346
25.11291653558615
25.12119715339441
26.2291003021725
25.08866154203159
25.10154941211505
24.96146008603675
23.83631164369821
23.83983777631859
24.9325579008335
23.82625822430031
24.94378544105123
23.83100872908316
22.62622007738345
22.63207480791664
22.63050774232539
23.67596725223201
23.67916271596694
23.66685901039619
23.67111351137924
26.21468101148912
26.22265070912513
25.09453029078736
25.10256323999903
23.82784655871737
24.94464405066772
23.83131165070162
22.62834692925707
23.66823789334737
23.67137872128528
26.24076572486782
26.22601722007396
25.12326220109006
25.10469821966082
23.8407653568904
24.94655944133799
23.83224600842681
22.63305404399639
23.59945544925297
23.6722254296119
26.3066708159211
26.29154535255575
26.25455667298849
26.27464793772548
26.30942030010463
26.30799477912747
26.36696666301681
26.27833711263602
26.38459047361787
26.31418108115269
26.37475194923815
26.39722411222981
26.2847775837457
26.29005394688077
26.2456854045794
26.25259470167487
26.25667040329935
26.23372371705769
26.25024034227855
26.27092048428221
26.30530422117577
26.29505514713083
26.26090638637904
26.27472186117409
26.22367434962092
26.24112410558632
26.23149626684497
26.24822331409688
26.2907653313084
26.38091948740659
26.40650081876711
15.65930273400262
15.65944597163659
15.65936958539403
14.99348806943534
14.99355143583145
14.99360758519391
14.99354452816479
15.65949997776401
15.65976609524303
15.65969173933678
14.99371181537088
14.99364993886855
14.99387077954261
14.99381117192076
15.65993149923479
14.99406580728627
14.99400855866535
15.65953014837812
15.65959494906838
14.99367297570374
14.99372793309349
15.65990182553837
14.99382994573095
14.99398428472296
14.99417513547614
18.10055336729163
18.42464904570739
18.42464176011534
18.10047335796573
18.42469035354824
18.1005102668561
18.10051664332596
16.47895446476988
16.47900707939931
16.15445029614882
16.15453762973203
16.15446984873671
16.4790283814598
16.47893308031858
18.10113234174003
18.42514668482087
18.42547483988884
18.10108136724292
18.10095937759329
18.10125181628425
18.42534067192333
16.47924839572621
16.15463876010029
16.15483446699544
16.47921744891486
16.15473976554444
16.47914372983739
16.47932399736979
18.10210073637583
18.42611206573809
18.42654081930818
18.10193189517917
18.10182208619165
18.10220676027048
18.42642262028617
18.10113466484196
18.42511626829677
18.42530592352777
18.1008965772318
18.10093168873336
18.42534432501544
18.10110040610838
18.10160003444646
18.42565054465227
18.42568267662097
18.10124124634135
18.10140843184536
18.10143678645673
18.42586521051233
16.47948115661334
16.15492402240488
16.15495052843496
16.47931033080665
16.1554286909403
16.47940980629266
16.47942744595697
18.10251620262771
18.42659216046435
18.42669574473924
18.10207596159709
18.10234587470831
18.1022523471945
18.42688520365706
21.98863728781187
22.31027314855129
22.31227592621509
21.9879087464437
21.98911776304433
21.98739120679139
22.31171771257674
19.07489436260221
18.75034204634755
19.07466007717635
18.7508211937249
18.75068905069153
19.07504251376949
19.07450558558373
21.99047467895599
22.31257369934566
22.31299198472204
21.98857397507251
21.98973596282165
21.98936792311951
22.31384447808565
19.07547260841017
18.75087922524716
19.07486207528006
18.75099421410437
18.75120553284753
19.07523627916775
19.07510835400561
21.98108271897194
22.30261477491721
22.30255481169694
21.9806387742213
22.30284706677583
21.98083807487006
21.98088583578911
20.69082247773281
20.69108827343175
21.01378609895626
21.01433264103159
21.01390560720128
20.6911886985309
20.69071954631032
19.0727041738704
18.74869757879494
18.74868921516781
19.07258857790055
18.74874420385559
19.07264170793163
19.07265135880693
21.98410269749059
22.30539852073342
22.30716045010834
21.98387849140888
21.9832307855816
21.98472226822202
22.30642661465042
20.69252769039208
21.01659709608861
20.69304879349392
21.01574863199557
20.6931541495938
21.01587639640694
20.69241736827423
19.07353268914625
18.74925878895102
18.74962812108106
19.07346143910125
18.74947700093353
19.07328645097265
19.07370346098102
21.98423306158718
22.30533682019153
22.30640493336944
21.982986684207
21.98316547395034
22.30660370007867
21.98406376841238
20.69223377874347
21.01543888185692
20.69156562586452
21.01488423719703
20.69166283568066
21.01554652009337
20.69214039192345
19.07354058900562
18.74922539102843
18.74943929909974
19.07319971381519
18.74948246594518
19.07324980908152
19.07349191961826
21.98646209734595
22.30809824411974
22.30831526617565
21.98470841927326
21.98551672356319
21.98569521301025
22.30920948092935
20.69398240863746
20.69406552741246
21.01819529476849
21.01697745876941
20.69454475357152
20.69348138996993
21.01755343924285
19.07419835201584
18.74982580489742
18.74986237397351
19.07369002101164
18.75006697354158
19.07392657830985
19.07396838371427
24.48654274400213
24.95892434150264
24.47855988475655
24.96682323395294
24.96804178794893
24.47969351409271
24.48563349506831
22.9572816014731
22.63292424492192
22.95615353985183
22.635257554928
22.63460608039962
22.95804559276328
22.95531466704425
24.49423802805785
24.48481167743286
24.97164456736877
24.97348998844223
24.4906822262035
24.97804765545919
24.48915702666268
22.96016590547006
22.63561409058632
22.95721948231462
22.6360903503979
22.63707771745223
22.95901815739225
22.95847496313803
26.62571601499
26.61381940510783
26.63289891619502
26.60489249661637
26.72139499237647
26.73210575139192
26.73031254598816
26.72354942886478
26.54064655892421
26.55464431188779
26.39054582835861
26.38846282946279
26.54917030545377
26.54691861877288
26.38295550648933
26.56487963321498
26.40841401635753
26.56201965987168
26.39781802736236
26.40470353023909
26.55727328043513
26.56897567267882
26.55969705305768
26.40551156715403
26.56026423241794
26.39413682244933
26.55332021227886
26.39984398228111
26.56589628470498
26.21415266384062
26.17344156166526
26.17993186153184
25.65874474794305
25.7112242599442
25.71426617121204
25.65456634686982
24.45610399967109
24.45265380211271
24.9228073358093
24.92387183591133
24.92587089388525
24.45410200559379
24.45470971537247
22.94481243708595
22.623860238513
22.62378337266446
22.86397951613958
22.62412871181882
23.02452244019022
22.86419344381951
26.22437654030301
26.20058887445107
26.21727438820571
25.73448978646485
25.75890699758947
25.75071768957786
25.74526992470651
24.47059862124043
24.95578671813404
24.47616964612792
24.94430585712678
24.47738248706339
24.94642236159914
24.46914421116065
22.94997540605311
22.62718284924955
22.62927670432797
22.94963194481277
22.62840274694614
22.9485154946502
22.95101765114997
24.47226331629928
24.46380411835151
24.93905570604121
24.94814589229911
24.46496598418046
24.94946132828187
24.47128334680352
22.95030621046273
22.62713047467865
22.62840959572592
22.94818169625724
22.62864427363521
22.94848157556835
22.95002622970545
24.48255432130245
24.48284499194816
24.96947948945018
24.95565970228605
24.48746564941301
24.47710542786395
24.9631120329418
22.95391300086358
22.63039038117091
22.63065655184974
22.95103094852543
22.63170406837153
22.95234961035864
22.95267932308109
26.570372267669
26.5398432810657
26.56198739534181
26.54929676112512
26.60883292308776
26.61133065435481
26.62464161567047
26.59317070989428
26.6534330018935
26.64895843369363
26.6634132909649
26.63710848680669
26.55470116215361
26.53732455231251
26.55974587327908
26.5316693588654
26.5276761939698
26.53324339829677
26.54301368260827
26.51713700851451
26.57720502272015
26.60739965162496
26.59786789038568
26.58852125411321
26.50807087468007
26.53064286620726
26.52480811451197
26.5143386530679
18.10063891946248
18.42474589163601
18.42492947441577
18.10072983061385
18.10076564695338
18.42478676546994
18.1006025619847
18.10071117325234
18.42500941427542
18.42498845871715
18.10094249248134
18.10081842850542
18.10083682649283
18.42486797239968
18.10062634868283
18.42472426226817
18.42489417806521
18.10069249088675
18.10073468075137
18.42477242083264
18.1005836153841
17.77641868777999
17.77649962691897
17.4521047745493
17.45223482868877
17.45213384177588
17.77653161616484
17.77638623732201
17.77634250309367
17.77627122105648
17.45203643378206
17.45203149642224
17.45206576236972
17.77630413856873
17.77630974189347
17.77640762478188
17.77646674064837
17.45209006872081
17.45221069899278
17.45212407280471
17.77650433124169
17.77636957148983
17.77648319047758
17.77668961853182
17.45229182877359
17.45227746757556
17.45219162839862
17.77657897642474
17.77659519968137
16.80339632106721
16.8034546135811
17.12776497599863
17.12788175479421
17.12779111390767
16.8034779905496
16.80337272351831
16.4789051535227
16.15440623878349
16.15440394633069
16.47885886724874
16.15442599329566
16.47888043867023
16.4788836435051
16.47899680373652
16.15457467879244
16.15456541519088
16.47913431835089
16.15450736285538
16.47906033686061
16.47907049959052
16.47894772835766
16.15444200641315
16.15452249187006
16.47898706216121
16.15446384592138
16.47901152819458
16.47892314482822
16.80334145173009
17.12770372465151
16.80329005481297
17.12769937518803
17.12773007448035
16.80331389409435
16.80331769418667
16.80338868123725
16.8034318433171
17.12775198554255
17.12786036165074
17.127782471894
16.80345900771211
16.80336128626704
16.80344323191799
17.12793307762934
16.80359365161931
17.12792032473019
17.12784308412365
16.80351309064614
16.80352444501288
18.10105170981607
18.42505406184721
18.42520440221457
18.10083555711491
18.10087703662208
18.42525006203496
18.10101109432922
18.10133532166518
18.42569879744717
18.42582616826058
18.10167939185596
18.10156605924298
18.10145189379448
18.42556805924864
18.10125666661147
18.42543530043096
18.42574049954527
18.10145111300883
18.10148961021114
18.4254797807821
18.10121705195191
17.77678761162916
17.77659450044163
17.4524321880051
17.4523246469106
17.77663148284845
17.45246462791599
17.77675137279397
17.77697096823428
17.77714519515069
17.4525974062912
17.45281633104662
17.45262907357625
17.77717960907632
17.77693559372524
17.77685957364226
17.77681376772576
17.45239036500633
17.45262453692945
17.77670491884632
17.45252904577363
17.77696625002727
17.77704122450611
17.77734940459074
17.4528775173932
17.45278523887297
17.45269195827212
17.7772479748092
17.77714541195068
16.47920022396211
16.15459651485059
16.15467404707247
16.479071018983
16.15469765387438
16.47909531251867
16.47917577759373
16.47936758492675
16.15495573473871
16.15504535715787
16.47953644356089
16.15484901263013
16.47950106203126
16.47943873035473
16.47932119804215
16.15478357718242
16.1550079185492
16.47943457086487
16.15480816016821
16.47945752804288
16.47929713901569
16.80366570608573
16.80352475674686
17.12805966726307
17.12796286243199
16.80355160469086
17.12808884085131
16.80363924105382
16.80379909315861
16.80392575286372
17.12820825538567
17.12840502458835
17.1282367023946
16.80395056556508
16.8037733094322
16.80371819437406
16.80368444222028
17.12802192772203
17.12823255214682
16.8036050043695
17.12814674917228
16.80379629757346
16.80384992842158
16.80406704126192
17.12845966410648
17.12837674932959
17.12829310871642
16.80399900172098
16.80392539025934
18.10202925187986
18.42602924521908
18.42630267470493
18.10171074955183
18.10174803288984
18.42634285227567
18.10199326786979
17.77766420059423
17.77737805176072
17.45322324602319
17.45302469437772
17.77741143889129
17.45325223835934
17.77763190706398
17.77772841078724
17.77757630310727
17.45308422623829
17.45339609930035
17.77747779689982
17.45330997272287
17.77782379336249
16.80430175540086
16.80409571330676
17.1287712464521
17.12859253318801
16.80411968148266
17.12879715659122
16.80427896772576
16.80434589706687
16.80423916320213
17.1286459418586
17.12892720096933
16.80416797990237
17.12884879058207
16.80441996658964
18.10120275498812
18.42519456251234
18.42553388340022
18.10110506770997
18.10100146954923
18.10130385766105
18.42542063210293
17.77686093893681
17.77664832447602
17.45250220888893
17.45236736897926
17.77667970883846
17.45252971884752
17.77683029067785
17.7769218537659
17.7768347142823
17.45242331741209
17.45266548663291
17.77674208694523
17.45258436998003
17.77701231748585
16.47924631795679
16.15471648840419
16.47910409544798
16.15462306067038
16.15473824198305
16.4791252350511
16.47922493510421
16.80371747938432
16.80356228605605
17.12812199992863
17.12800081859752
16.80358535116118
17.12814683401925
16.80369477487769
16.47928802834311
16.15465938763639
16.15486122855872
16.47923029980789
16.15477524913466
16.47916696102729
16.47935340244663
16.80376237048074
17.12805123782426
16.80369912825496
17.12826909482738
16.8036311160064
17.12819609749191
16.8038290171093
18.10179181719415
18.42587004958048
18.42632255777688
18.10182805350483
18.10160475324176
18.10201003476368
18.42607932945075
17.777277557897
17.77695651803847
17.45274972228381
17.4527720693865
17.77710617780605
17.7771313021428
17.45290304509469
17.77744972716521
17.77748264569736
17.45290778715236
17.45323489554619
17.77728216617491
17.45305791423287
17.77764600722919
16.80401109668264
16.80378742487734
17.12834444336519
17.12836438998447
16.80389562442808
16.80391359275595
17.12848058848739
16.8041396522343
16.80416533697607
17.12848686366862
17.12878027171795
16.80402651520426
17.12862034790301
16.80428428500868
17.778102710016
17.77770571425309
17.45350938107332
17.45343243779862
17.77794909474234
17.77786441632376
17.45364856306339
16.80463433464326
16.80433032559258
17.12903014488894
17.12895984965796
16.80451439019918
16.80444933825939
17.12915745639362
21.98830860764391
22.30985823787766
22.31114045778328
21.9868569034886
21.98703690867631
22.31133502727846
21.98814169282923
21.66510036438753
21.66384626027306
21.34160485295786
21.34077434562061
21.34172936807035
21.66400057208088
21.66495651810074
21.66538394348834
21.66474978052292
21.34233563143921
21.34103661245654
21.3419750952982
21.66579929389226
21.66430466513985
20.69456543530469
21.01810442564237
21.01738010673949
20.69373688690443
21.01821266385143
20.69383692281745
20.69447096685579
20.69475220217422
21.01874066417881
21.01760733576
20.69432549428364
21.01842647145882
20.69502704369059
20.69403464731037
20.3708011792476
20.37007409489625
20.04636815471162
20.04685909994308
20.04693187913539
20.37016142850036
20.37071841250987
20.37096493751521
20.37058863905169
20.04651968189363
20.04728854031401
20.04707597691665
20.3712062256635
20.3703341847169
19.07479421810566
18.75024917305451
19.07434846152023
18.7505548238086
18.75059980021606
19.07440113250479
19.07474372646288
19.39891948945434
19.39841808955744
19.7224698139409
19.72290395053185
19.7229681697587
19.39847754653087
19.39886263583387
19.39903219215268
19.39876953434782
19.72260321040289
19.7232832772791
19.72309539993947
19.39919877570974
19.39859539219967
21.66697754437004
21.66532352599267
21.34280186133187
21.34251522428461
21.66633512937262
21.34336248563038
21.66601066575399
20.69581519997944
21.01914783405357
20.69470292333481
21.01889407233743
20.69538390383812
21.01963874924889
20.69515875614124
20.3719001960925
20.37091943949778
20.04738704344351
20.04756545476313
20.37152006517164
20.04790152676559
20.37131986426124
19.39968140105697
19.39899694232628
19.72336904191464
19.72352838393563
19.39941638721884
19.72382639063008
19.39927376773732
21.98156420675682
22.30319526569437
22.30426453699885
21.98207947907812
21.98226632152212
22.30342414836439
21.98137122444249
21.98194561723141
22.30470138343052
22.30454105111811
21.98317722975924
21.98250585395649
21.98263533991264
22.30387685963501
21.98147234402086
22.30302106437391
22.30398987734557
21.98181066487449
21.98204508910337
22.30330964956583
21.98123167553663
21.65932031846115
21.65975261924071
21.33661196182758
21.3372522424346
21.33675142370276
21.65991131630669
21.65915670766319
21.65891573961293
21.65854157357856
21.33626708161176
21.33623555872163
21.3364092157022
21.65871023564493
21.65874881931731
21.65924578529613
21.6595340396968
21.33651936547937
21.33710421093811
21.33669033566033
21.65973122230887
21.65904361881979
21.65964373213768
21.66068617990355
21.3375203264528
21.33743332290034
21.33702724728357
21.66011931952388
21.66022496375304
20.36753490479231
20.36776360378268
20.04399288650563
20.04434396197067
20.04407033899068
20.36785066445247
20.36744582121122
20.6905730979828
21.01349268880513
20.69034128171085
21.01346668127139
21.01361433685206
20.69044680238496
20.6904684498213
20.36732020879609
20.04380597009709
20.36712040570242
20.04379061412124
20.04388454532322
20.36721157648379
20.36722974101454
20.69078031990097
21.01370956779109
20.69096401029582
21.01420987703932
21.01385507422789
20.69108605101284
20.69065574754607
20.36749945775718
20.04394751289817
20.36765898172578
20.04427058801092
20.04404031795387
20.36776418388003
20.36739221431422
20.69102630867401
21.014562979819
21.01449070549494
20.69168106443076
21.01414211549464
20.69132705928105
20.69138758027623
20.36771141912048
20.04449426804228
20.04445089839216
20.36827801750167
20.04422389251045
20.36797212632565
20.36802318264866
19.07282798007831
18.74880714284942
18.74901452878453
19.07295964337463
18.74885325019043
19.07301092238786
19.07277578712028
19.07293160135097
18.74910459465612
18.74908061354017
19.07326361745122
18.7489448243972
19.07308515347703
19.07311273419554
19.07280902676646
18.74878233374168
18.74897410632872
19.07290347257551
18.74883680359265
19.07296439535099
19.07274718437862
19.3966988755339
19.39684901148577
19.72038420630654
19.72069006637511
19.72045183825668
19.39690720556339
19.39663957710058
19.39655774661242
19.39642606491184
19.72022172808948
19.72020865660963
19.72029027638805
19.39648649727715
19.3964976955685
19.39667691368293
19.3967839812449
19.72034554033528
19.7206274043179
19.72042624124648
19.39685336424261
19.39660641885091
19.39681655341394
19.39719373352501
19.72082156335647
19.72078448590993
19.72058599094848
19.39699080941044
19.39702269816036
21.98367770476149
22.30486844461977
22.30566430845099
21.98256018962762
21.98278633080784
22.30592165753848
21.98346150320311
21.98510134873894
22.30829337618397
22.30889125007992
21.98675872429182
21.98620506182714
21.98568931560282
22.30759966258466
21.9846982740737
22.30687984122423
22.30844464718027
21.98563295595893
21.98582575958065
22.30712276773791
21.98449329526762
21.66199131265352
21.66279346375107
21.33987272699261
21.33889126458321
21.6629579342419
21.33903999061258
21.66181722948942
21.66233412251031
21.66375588334347
21.34015094736104
21.33976282753604
21.66328192454331
21.33933322740334
21.66283534266842
21.66111952693324
21.66016992918225
21.33813574022838
21.33764175237826
21.66036061633049
21.33829146168179
21.66093662272482
21.66147960693744
21.66128427874711
21.33904794526199
21.33796078103191
21.66073595007768
21.33859841906582
21.66200583390061
20.69274565127814
21.01683720588051
20.69366847148105
21.0164986791418
20.69336234191337
21.01612857616345
20.69306603660464
20.36901696136393
20.3694720771556
20.04584304958693
20.04528049195363
20.36956375613249
20.0453639167197
20.36892124175375
20.36920623422005
20.37001204507019
20.0460016163424
20.04577232092334
20.36974507168431
20.0455290050299
20.36948484177476
20.69196786526481
21.01509719534971
20.69136563024736
21.01467145062504
20.69148439478191
21.0152305522767
20.69185303894365
20.36852957579208
20.04485143631854
20.36800703322433
20.04457143113622
20.36810959080677
20.04493784263941
20.36843020339131
20.69219468478808
21.01587981224655
21.01494424826928
20.6920635654726
20.69171895935828
21.01549371712162
20.69252799381941
20.36872604092422
20.04536072748792
20.04474750681346
20.36861061058296
20.36831232683384
20.04510880757839
20.36901516091939
19.07341716530572
18.74915425444039
18.74932336672329
19.0731083329766
18.74937486116885
19.07316805827793
19.0733588922097
19.07382052953952
18.74987948741443
18.75002195234979
19.07430663332056
18.74973244754306
19.07414619730502
19.07398642224495
19.07370832476743
18.74958298993986
18.7499256911284
19.07398298788469
18.74963308126567
19.07403770329512
19.07365173155999
19.39769606651251
19.39800609957274
19.72200684861252
19.72151242610419
19.39806800645378
19.72158544346386
19.39763190358807
19.39782320618551
19.39837194252977
19.72214606654872
19.72194339088151
19.39819069100123
19.72173003708564
19.39801100121406
19.3973666816849
19.39701649044906
19.72113604556356
19.72089053672136
19.39708442726391
19.7212115114851
19.39730049625248
19.39749781464271
19.39741775188178
19.72158137270812
19.72104415205605
19.39721901772574
19.72136093565587
19.39769147318162
21.98456741457197
22.30575305753264
22.30757122236961
21.98403709871953
21.98351854279313
21.98505873505341
22.30699570227065
21.66157589151126
21.66051821614527
21.33854508605954
21.33789748956126
21.66067058216959
21.33866969018009
21.66143099279984
21.66186232249355
21.66141463784553
21.33815567611717
21.33927929696906
21.66097172602013
21.33891619002021
21.66228373996821
20.36875491090507
20.36817586053866
20.0450588618764
20.04469961712528
20.36826032091522
20.04513002335835
20.36867355181769
20.6924187660748
21.01510667835857
20.69213953645778
21.01607384036824
20.69185536982962
21.01575960320104
20.69269185466718
20.36891616632482
20.04484573992765
20.3686749894601
20.04547985425288
20.36842770264935
20.04527114201609
20.36915444944895
19.07363723356154
18.74931350054343
18.74969540668587
19.07349670299537
18.74956821526575
19.07334927710987
19.07378049369721
19.39750896285343
19.39712210084591
19.72131392784311
19.72100023952728
19.39717886685135
19.72137640487948
19.39745391362247
19.39761823168211
19.39745840324021
19.7211283084569
19.72168384248107
19.39729153339951
19.72150036207135
19.39778009244151
21.98734234253027
22.30918052441239
22.31136196654668
21.98746973649261
21.98831738528541
21.98644378198857
22.31023267745078
21.6642516335673
21.66436632897235
21.34171739467518
21.34031724345611
21.66509671517422
21.66348044796434
21.34098222802209
21.6634912487568
21.66198919786658
21.33962776700614
21.33975137000181
21.66268270570187
21.6628306821083
21.34032276089881
20.37028431359223
20.37035896331955
20.04690855492145
20.04608891901102
20.37077865879925
20.36984673075332
20.04647257434312
20.69348067920203
21.01637904856722
20.6925099860369
21.01648302365555
20.69295992678152
20.69304797306632
21.01697928962975
20.36984430023413
20.04568841818153
20.36899780335038
20.04575272270811
20.36939057119213
20.36946559550596
20.04608535873585
19.07446735537137
18.75007187462608
18.75057846008355
19.07451634633833
18.75030664215939
19.07477194375491
19.0742032135107
19.39855422266998
19.39860856075126
19.72294476028081
19.7222214405177
19.39889648497446
19.39825609290797
19.72255905056264
19.3982514213384
19.39767700128765
19.721868573705
19.72192399557747
19.39794415478159
19.39799217073029
19.72221717346729
26.25869039611835
26.23181854172905
26.25168772191034
25.77055520754791
25.7633545254827
25.77586120291983
25.75596385373617
26.22915046083682
26.24994385528986
26.24718106244227
25.76926016667997
25.75124834939592
25.75413555612639
25.76722885504385
25.60909442648844
25.59291876004669
25.11833298182099
25.1270452344468
25.12839243202253
25.59546415977767
25.60726293899776
25.61026546453594
25.60367329812807
25.11947012115798
25.13289121777037
25.12926026612971
25.61509152897852
25.59708220390434
24.48713261365661
24.95994011809793
24.4835302690052
24.97213389726418
24.96882840806262
24.48964069599565
24.48042761686649
24.32588625866888
24.31862228352975
23.83866660746664
23.84289116519459
23.84352781147265
24.31964183551777
24.32505862434952
24.32642365098958
24.32311039642308
23.83915524238092
23.84589079462078
23.84392963480813
24.32871713846043
24.32030357344746
22.95675522249268
22.632435710442
22.95444234128309
22.63393054977307
22.63415839246361
22.95473611939186
22.9564872889266
23.27909977063141
23.27637631914983
23.59833554736274
23.60078662242261
23.60116487383572
23.27672044405983
23.2787834178459
23.27972215644316
23.27840748003004
23.59916845109026
23.6029745022503
23.60190571890467
23.28062286808905
23.27741014719624
26.25853239974183
26.26141920780938
25.78483583343217
25.76625698867211
25.77797673004937
25.77549749063548
26.270023354261
25.62336053603291
25.60628420702209
25.1324101694353
25.1343736626072
25.61702852588665
25.13932508584632
25.61468332431717
24.33294459337444
24.32427384241004
23.92584579598294
23.92665862353336
24.3296728344211
23.92850803103875
24.32824275195933
23.28310210966108
23.27966741036179
23.60360402206312
23.60431415662082