/*--------------------------------*- C++ -*----------------------------------*\
  =========                 |
  \\      /  F ield         | OpenFOAM: The Open Source CFD Toolbox
   \\    /   O peration     | Website:  https://openfoam.org
    \\  /    A nd           | Version:  7
     \\/     M anipulation  |
\*---------------------------------------------------------------------------*/
FoamFile
{
    version     2.0;
    format      ascii;
    class       volVectorField;
    location    "0";
    object      U;
}
// * * * * * * * * * * * * * * * * * * * * * * * * * * * * * * * * * * * * * //

dimensions      [0 1 -1 0 0 0 0];

internalField   nonuniform List<vector> 
12675
(
(0.9990364436427152 -6.239660231149516e-05 -6.768287718245793e-05)
(0.9992576179341092 -4.440850935824276e-05 -4.802647671450965e-05)
(0.9994160942015304 -3.223013542426361e-05 -3.478135563459097e-05)
(0.9995316615572981 -2.371652475015296e-05 -2.555107759371229e-05)
(0.9996169185079123 -1.75899530660415e-05 -1.89249819884497e-05)
(0.9996801229070605 -1.305136068609605e-05 -1.402666478147929e-05)
(0.9997267907212606 -9.583953300227413e-06 -1.029135132575107e-05)
(0.9997606442524386 -6.841985788873347e-06 -7.342236362470083e-06)
(0.9997841886380694 -4.584891332891024e-06 -4.917824408982973e-06)
(0.9997990658963304 -2.636822343917624e-06 -2.827445419585149e-06)
(0.9998062700296583 -8.605654857787723e-07 -9.22642013041727e-07)
(0.9990811303534147 -0.0001800523562368025 -6.521457434277218e-05)
(0.9992870259953962 -0.000128976115099574 -4.658248019881653e-05)
(0.9994362622215777 -9.399393782698377e-05 -3.386829370340052e-05)
(0.9995459287153375 -6.938683413933865e-05 -2.495304201112788e-05)
(0.9996273108173673 -5.159406288385727e-05 -1.852551740601184e-05)
(0.9996879237108042 -3.835926728155115e-05 -1.375673760469062e-05)
(0.999732840946376 -2.821270330192443e-05 -1.010855370664836e-05)
(0.9997655153289347 -2.016515051829047e-05 -7.220176874317236e-06)
(0.9997882863105518 -1.352451986578486e-05 -4.840130862258606e-06)
(0.9998026951587673 -7.782434230357442e-06 -2.784296671426003e-06)
(0.9998096782220305 -2.540606026397362e-06 -9.088063818214064e-07)
(0.9990885074028621 -5.978014431142913e-05 -0.0001940876298624592)
(0.9992916945099986 -4.287838026391695e-05 -0.0001388354814500498)
(0.9994393722934767 -3.126249467590788e-05 -0.0001010700662355015)
(0.9995480842300029 -2.30824457933393e-05 -7.45358225796324e-05)
(0.9996288545068959 -1.716615807107014e-05 -5.537289363675396e-05)
(0.9996890648816756 -1.276482850572425e-05 -4.113724317445792e-05)
(0.9997337138792661 -9.389820290421825e-06 -3.023701907318014e-05)
(0.9997662096910306 -6.712313613772268e-06 -2.160157983973749e-05)
(0.9997888646715462 -4.502333638508458e-06 -1.448279850663426e-05)
(0.999803203763812 -2.590966221747532e-06 -8.331936866348457e-06)
(0.999810154048785 -8.458608350205943e-07 -2.719683976643082e-06)
(0.999129494287858 -0.0001729382148619149 -0.000187512535004783)
(0.9993194917860578 -0.0001246077188552387 -0.0001347808294505092)
(0.9994586641397001 -9.11860556216413e-05 -9.845184610582991e-05)
(0.9995618194479314 -6.753687869117365e-05 -7.280601499528074e-05)
(0.9996389069897886 -5.035471734560529e-05 -5.4212203561149e-05)
(0.9996966412803494 -3.75200039611938e-05 -4.035048808388007e-05)
(0.9997396109557042 -2.764331338466434e-05 -2.970291492535318e-05)
(0.9997709719097381 -1.978438208050876e-05 -2.124425298061008e-05)
(0.9997928806150479 -1.328187389686904e-05 -1.425502360152819e-05)
(0.9998067668876935 -7.647571117907534e-06 -8.205315911606586e-06)
(0.9998135032216212 -2.497345316874965e-06 -2.679063516442469e-06)
(0.9986388135853809 -5.098573829699768e-05 -0.0001646793753682926)
(0.9986939539304203 -0.0002462489280380624 -0.0001617637034933361)
(0.998814487207163 -0.0004020134856451655 -0.0001470375462576419)
(0.9987596990871627 -0.0002360588230680633 -0.0002574723911538875)
(0.9988566919949506 -0.000395700475897903 -0.0002393886031186687)
(0.9971830311025226 -6.389597984766807e-05 -7.069439360015416e-05)
(0.9984836645273808 -3.042933855244131e-05 -0.0002221204705221888)
(0.9974339450867603 -0.0005335549393847882 -0.0004586404863215329)
(0.998576979236101 -0.0003050615041147701 -0.0002223925421927207)
(0.9977655877777298 -0.0009042367137852028 -0.000410581990425738)
(0.9986386003631398 -0.0005027565921107659 -0.0001795399180624446)
(0.9973607008007335 -6.063138789158839e-05 -0.0006034729842363348)
(0.9974991378815248 -0.0005227650635172038 -0.0005776615998670957)
(0.9987130276822985 -0.0003127352590784383 -0.0003482708172524989)
(0.9978208160384691 -0.0008867983508834364 -0.0005176047342904046)
(0.9986855138492423 -0.000477649273350667 -0.0002911700429345603)
(0.9934241456167027 -0.004206795367147077 -0.00199783271999912)
(0.9975774007032415 -0.001010417579805701 -0.0004597489079663958)
(0.9937954391516525 -0.004028017616917865 -0.002456076960770933)
(0.9976407883897613 -0.0009897551044626494 -0.0005788729835615041)
(0.9890117572371657 -0.0003647468407054003 -0.0004301886626066731)
(0.9938898781439295 -0.0001790571510575794 -0.001427646915328277)
(0.9969051461365288 -7.214036123302721e-05 -8.001812856019503e-05)
(0.9911184268616657 -0.002797821524220438 -0.00253900493879922)
(0.9948967120936211 -0.002332936999346003 -0.0001761400301284251)
(0.9971963447094476 -0.0005999437851134707 -0.0005168853296478958)
(0.9906048811916442 -0.0003246255321520545 -0.003420447004125939)
(0.9941558943786948 -0.0001728985944998452 -0.001770698325510088)
(0.9971120766504245 -6.825064222942084e-05 -0.0006808579505529165)
(0.9916429706471883 -0.002668933217919175 -0.003108813246642183)
(0.9954150573696775 -0.002147512007744318 -0.001456333044047008)
(0.9972717782384274 -0.0005871214381625386 -0.0006501924764221868)
(0.9803947673685661 -0.01998955841613021 -0.0007760095970022429)
(0.992731851031745 -0.004896533864228348 -0.00234152259099455)
(0.98607781764146 -0.01586096772409749 -0.01031809422350842)
(0.993179812058727 -0.004671240618166541 -0.002867078574502371)
(0.9796006874297163 -0.04187810594777992 -0.02862678884877237)
(0.9837447286297835 -0.04003847933337353 -0.02514929678177919)
(0.9830729813774131 -0.03804361220998806 -0.02928338891839246)
(0.9319855784348083 -0.001106413861217551 -0.0639105284494372)
(0.9533334221876888 -0.001081573107771556 -0.001556144990828804)
(0.9873046109321734 -0.0004414981929899468 -0.0005269147474079331)
(0.9791299135493504 -0.03772368702963921 -0.02547825866178631)
(0.9782218046862615 -0.02015625037657642 -0.0008407013274390517)
(0.9899434464066854 -0.003311062960138616 -0.003031966885096722)
(0.9679611248975424 -0.0008325472775316319 -0.01960277965471374)
(0.9893167265711659 -0.0003855872281015069 -0.004101516243809685)
(0.9845995864741128 -0.015908148661002 -0.01110101976542438)
(0.9905835466679094 -0.003143772175242997 -0.003694671903140359)
(0.9972913112029844 -6.190820408349257e-05 -0.0004793392747783327)
(0.9973779463682998 -0.0004221550225948984 -0.0004667628634839114)
(0.9972737097784379 -0.000435571695354213 -6.881643919968262e-05)
(0.9979133736254356 -4.41318331098332e-05 -0.000339532954516702)
(0.9978435414199336 -4.533504558650005e-05 -4.981617412557181e-05)
(0.9979023777021758 -0.0003099828681736097 -4.867917805504118e-05)
(0.9979696888837064 -0.0003014816104242842 -0.0003315232600715929)
(0.9980792907627524 -3.974064891012616e-05 -0.0003047983988264181)
(0.9984442398460508 -3.044664462395177e-05 -3.197408025761917e-05)
(0.9984936886801927 -0.0002082722082557924 -0.0002249596694887315)
(0.9984742739265206 -0.0002045295488640799 -3.17636301159733e-05)
(0.998018433979932 -4.071577057809402e-05 -4.461488811679029e-05)
(0.9980696059419428 -0.0002786855028996417 -4.36894265165314e-05)
(0.9981274307274862 -0.000271427467775033 -0.0002979300581205086)
(0.9973322942980758 -0.0005503696340807088 -6.760258746846642e-05)
(0.9976692776031915 -0.0008245681108860002 -0.0004245730043100014)
(0.9975785497748011 -0.0008495766604295681 -6.250786545358695e-05)
(0.9979405681879989 -0.0003924628088237019 -4.792247139487107e-05)
(0.9981042556798313 -0.0006113253491385473 -4.461614768622755e-05)
(0.9980065572959502 -0.0003816235958002293 -0.0003261235290071472)
(0.9981677683619474 -0.0005961424951380877 -0.0003047735695362683)
(0.998516850018828 -0.0002669034349568985 -3.123095476742286e-05)
(0.9974205221906948 -0.001633457774797924 -0.001320113698488612)
(0.9984408452410982 -0.0005952218201579602 -5.780818361442493e-05)
(0.9981027705203916 -0.0003530340324837534 -4.305914232567717e-05)
(0.9982458027618666 -0.0005499575878711395 -3.996608417728571e-05)
(0.9981589993847498 -0.000343432906785138 -0.0002927569011086198)
(0.9983096602305446 -0.0005364233084859265 -0.0002727603996268045)
(0.9976794090163911 -0.0009312851576624022 -6.042200936829161e-05)
(0.9981728060660536 -0.0006734174834583858 -4.334198626788446e-05)
(0.9982321209648711 -0.000658121367041527 -0.0002968549373559115)
(0.9986132208193513 -0.0005045416661778086 -5.990813293018153e-05)
(0.9983062376328998 -0.0006058730666180869 -3.882157065617645e-05)
(0.9983593358348991 -0.0005951474059343339 -0.0002665831385246942)
(0.9974447819271535 -0.0004135425297288622 -0.0005877888732202816)
(0.9979582960616901 -4.333158377771047e-05 -0.0004287712105438756)
(0.9980133476008539 -0.000295735578723232 -0.0004185590245007124)
(0.9985295259120393 -2.984772697270502e-05 -0.0002876731127772703)
(0.9981183506372642 -3.907431459594401e-05 -0.0003853367717395505)
(0.9985828910417294 -0.0002045064910989666 -0.0003259367144875351)
(0.9981649972896494 -0.0002658947193506602 -0.0003762245151414191)
(0.9977274150486728 -0.0008084819172874449 -0.0005351268266098897)
(0.9980499209948313 -0.0003743781393463874 -0.0004117123371726447)
(0.9982071492757592 -0.0005867851572297822 -0.0003860743326129175)
(0.9986049937084021 -0.0004018629425425415 -0.0003027855928521587)
(0.9981971087091044 -0.0003360077283738166 -0.0003691430705284)
(0.9983424912467376 -0.0005279192306281053 -0.0003474653663481018)
(0.9982703124377941 -0.0006483458259501266 -0.0003761263710266275)
(0.9983982644799521 -0.0005879172628028501 -0.0003395123265529309)
(0.9928156037905432 -0.004497166249343365 -0.0003056625062191934)
(0.9947403372738269 -0.002881840927893059 -0.0001925341154426081)
(0.9950902864875767 -0.00273369153074963 -0.001276754584105685)
(0.9952377207594308 -0.002506077001166685 -0.0001666468676776199)
(0.9955318658274139 -0.002386050311775539 -0.001109387731251283)
(0.9964178831784193 -0.001686410640112028 -0.0001108601589326841)
(0.9965976938288296 -0.00162024473742865 -0.0007450272093840819)
(0.9974783634769163 -0.001042543763287702 -6.779037809535534e-05)
(0.9967284905445554 -0.001488299753274823 -9.753140158120496e-05)
(0.9968824604602381 -0.001433448813600191 -0.0006571438332405497)
(0.995307976028088 -0.00264084096789995 -0.001584438722512516)
(0.9957157811740989 -0.002310492113196736 -0.001380175079951729)
(0.9967115183451087 -0.00157814456383004 -0.0009325590156725805)
(0.9969802509487445 -0.001398445577354957 -0.0008239297162444519)
(0.9899971035947448 -0.000340542342682755 -0.002795980973987392)
(0.9906881286840828 -0.002257417258005465 -0.002639318249019464)
(0.9897638184010106 -0.002426448757439036 -0.0004067747637849496)
(0.9931328652585617 -0.0002085423250537571 -0.001672751934125176)
(0.9926117369671867 -0.0002207784211449269 -0.0002534816871957405)
(0.9930253998560965 -0.00147771261849805 -0.0002418726026450062)
(0.9935133283933307 -0.001396174843523733 -0.001596822194062277)
(0.9955997330798652 -0.0001166323153654843 -0.0009168130662004798)
(0.993462733586437 -0.0001888323256117361 -0.0002154227144870742)
(0.9953550185188481 -0.0001217651820360711 -0.0001368634676622842)
(0.9938049128754252 -0.001267111072995755 -0.0002061580847443705)
(0.9955552699805399 -0.0008229517196142445 -0.0001320082672239459)
(0.9942061168796303 -0.001202131971749445 -0.001367069574440825)
(0.9957874915960998 -0.0007886764132259461 -0.0008847756365004011)
(0.9970313901139524 -6.976979327123204e-05 -0.0005414957213814272)
(0.9971316742661268 -0.0004751336818445459 -0.0005265386807892919)
(0.9970104778816781 -0.0004910994876492935 -7.777833141605947e-05)
(0.9960294477287039 -0.000101986074097104 -0.0007986914237018044)
(0.9958236987992156 -0.0001061775511286605 -0.0001188808903962308)
(0.9959930126162408 -0.0007190857250464939 -0.0001149179081940037)
(0.9961888669006755 -0.0006910308478158184 -0.000772450943795357)
(0.9902459811626068 -0.003008152915055463 -0.0003913075603210477)
(0.9927939748078021 -0.003976093074387205 -0.002147102552700839)
(0.9921150559492393 -0.004257452262753657 -0.000329261836771342)
(0.9943353663992301 -0.002692524330522376 -0.000204309199657967)
(0.9947171567189582 -0.002551353131401955 -0.001353221667269925)
(0.9932872910672521 -0.00184390240543589 -0.0002344377678827772)
(0.993753712533028 -0.001742930553028747 -0.00154853172284812)
(0.995215785327988 -0.002219100252662757 -0.001171377537183474)
(0.9962084945590237 -0.001555563781183 -0.000116030879885471)
(0.9964007838768242 -0.001493558036364939 -0.0007792367957888263)
(0.9940219206677521 -0.00158410086059894 -0.0002002395425253366)
(0.9956832110273347 -0.00103384134320275 -0.0001288960018104471)
(0.9944065763515165 -0.001503531997946472 -0.001328479616959109)
(0.9959075033467948 -0.0009911238114962326 -0.0008642341800370562)
(0.9970783832406998 -0.0006199453546909791 -7.633287355580804e-05)
(0.9974670275020725 -0.0009231381850314379 -0.000476368253120052)
(0.9973625362034381 -0.0009528853425083902 -7.027145413722182e-05)
(0.9965489745450232 -0.001369299578599218 -0.0001018035397236646)
(0.9967129826229261 -0.001318072586816819 -0.0006855091720017397)
(0.9961014477951661 -0.0009045989617384991 -0.0001123726869541193)
(0.9962910089678372 -0.000869576529092926 -0.0007555915925170627)
(0.9912458931345941 -0.002151670243865515 -0.0032287228476911)
(0.9934559399777964 -0.0002008241144274516 -0.002068705415089839)
(0.9938153897826428 -0.001345121845485414 -0.001975819854984695)
(0.9957541181854027 -0.0001133754023506259 -0.001145165290104905)
(0.9944559294584314 -0.001161313008854092 -0.001696400160528876)
(0.9959340685618048 -0.0007669230924976924 -0.001105551868346547)
(0.9972091625144508 -0.0004649006475683986 -0.0006622227839974846)
(0.9961597280816035 -9.931885170419835e-05 -0.0009995284006166325)
(0.9963129410198001 -0.0006731716977154707 -0.000967005852000845)
(0.9932066269291618 -0.003803200099783547 -0.002636524394495784)
(0.9949543304497971 -0.002462980987461891 -0.001678063265502035)
(0.9940425631573225 -0.001679809846737638 -0.001916836407951863)
(0.9965224138603159 -0.001454132972235158 -0.0009749412015286823)
(0.9946461835074436 -0.001452944739101398 -0.001649090976072155)
(0.9960491281384113 -0.0009640050437736613 -0.001080145858062101)
(0.9975338777340905 -0.0009040267631093606 -0.0005996409307530573)
(0.9968170769928877 -0.001285403162709473 -0.0008591530580497992)
(0.9964111363847895 -0.0008472750924222947 -0.0009461038323054338)
(0.982899789784178 -0.03630330644871771 -0.02258381358654754)
(0.9697151577960621 -0.05053817912437483 -0.002129688210447048)
(0.9791466572738926 -0.02224656442657471 -0.000872072271343367)
(0.984389195379628 -0.01831821482846662 -0.01063880333864722)
(0.9850010108676852 -0.01666299679513491 -0.009593684385165427)
(0.9872367641650058 -0.01001443239327693 -0.0003582287820114741)
(0.9892869368212944 -0.008978279320945859 -0.004874769772874178)
(0.9919925478312573 -0.005265857612891926 -0.0003601347789460588)
(0.9879662228062538 -0.009146190717427269 -0.000332187651482395)
(0.9901451682963081 -0.007972343692517002 -0.003905587693711792)
(0.9854788391851806 -0.03333635295430333 -0.02338341426650837)
(0.985596562977968 -0.01738236603925331 -0.01140357884261213)
(0.990060809340899 -0.008709840167876976 -0.005427737099286095)
(0.9909953240919056 -0.007474934417563742 -0.00469466937864004)
(0.960798708573677 -0.06115101904911949 -0.00283971913111896)
(0.9659561713118821 -0.05604313583290568 -0.01820220895377286)
(0.9412252613729181 -0.05859391953096458 -0.02825455663757164)
(0.9307606506892652 -0.06487753824126476 -0.002117393815625197)
(0.968877863213363 -0.05746615234021806 -0.002439196431884801)
(0.9729043672477927 -0.05289018312138002 -0.01571068636877663)
(0.9881243430487328 -0.04186093836559209 -0.009891017734045307)
(0.9863168166663505 -0.04486254797261195 -0.001515265416304508)
(0.9690165311353661 -0.05296060951989686 -0.02204433531580905)
(0.9449454923749285 -0.05671983554268721 -0.03116127391773016)
(0.9647825474586307 -0.04422749876265757 -0.04049222803380993)
(0.9932209177192957 -0.03306215837642713 -0.01664934732160799)
(0.9753043611877024 -0.05012294322207807 -0.01910031835537401)
(0.9892173071331022 -0.04002067054295442 -0.01214887883445827)
(0.9919060094060779 -0.02752155487805067 -0.02800066937922877)
(0.9707531700894541 -0.03983494941801668 -0.04086712996164377)
(0.9853422862023743 -0.02810154439578848 -0.03747474470838106)
(0.9460551612207786 -0.03114214809653649 -0.05264015631100548)
(0.8672194693754701 -0.001612074751878478 -0.003461981776402067)
(0.8943239115207006 -0.04701321014827445 -0.002828931718230195)
(0.947853588276203 -0.001226025321643589 -0.001814084943977817)
(0.9562623940212946 -0.01650833907750966 -0.001566686171508116)
(0.9620814424849272 -0.0009872776769090938 -0.02112901290800097)
(0.9680881995212736 -0.01325662810808177 -0.01834949194637081)
(0.9766123687939923 -0.0004737174943759804 -0.0006019579325790214)
(0.9605987125228049 -0.01454736063549304 -0.001350744358549641)
(0.9793763926438788 -0.0064864221050021 -0.0005428099610587996)
(0.9652590064246468 -0.0008808087069570847 -0.01843653709317852)
(0.9805460233634463 -0.0004131439448612914 -0.007786528205878022)
(0.9705554259318642 -0.0118466372034591 -0.01610256910558708)
(0.9827827935062893 -0.005660136045710833 -0.007037967996976134)
(0.9885511088905741 -0.0004064032820015225 -0.003369303339198744)
(0.9894096431221332 -0.002681504065809955 -0.003164757811816645)
(0.9882407534859514 -0.002903167589272078 -0.0004918864601686448)
(0.9785790382739673 -0.0004244545328220172 -0.000533332477926255)
(0.9810138262716122 -0.005839963604154478 -0.0004836610952052757)
(0.9819951578744567 -0.0003735373572960298 -0.006968715679375368)
(0.9839749667462788 -0.005126537548531576 -0.00631962680176136)
(0.9477565938126982 -0.03273674806491484 -0.05031472996813503)
(0.9628356949760538 -0.05325589070419851 -0.002446139550888068)
(0.9766683811268696 -0.02251493022977726 -0.0009493547732708873)
(0.9826002172042541 -0.01845112966239308 -0.01150907934773036)
(0.9381631032531282 -0.05287034230835184 -0.0270344051596854)
(0.9584887222226134 -0.01808808015772875 -0.001500403914888559)
(0.9696672985051542 -0.01453781175549835 -0.01761649090472161)
(0.9833958682779372 -0.01673102647601605 -0.0103362133137576)
(0.986307615136622 -0.009912444277227647 -0.0003837704932681928)
(0.9884616496005139 -0.008754868418965306 -0.005125328389009367)
(0.962513919805399 -0.01595017284898474 -0.001296081805706669)
(0.9801025465299722 -0.007157948337620399 -0.0005268980520253164)
(0.9719458599555107 -0.0130019976440539 -0.01548752137173413)
(0.983378327221421 -0.006252260384036334 -0.006839618928580088)
(0.9888440010487095 -0.003588346152544432 -0.0004714490532059593)
(0.9919752435363347 -0.004651741690606716 -0.002530711142676105)
(0.9911401025997557 -0.005012099629192317 -0.0003907131425372569)
(0.9871198415465136 -0.009048385720099337 -0.0003512660491331273)
(0.9882380706121277 -0.007543707341864821 -0.004245970523734524)
(0.9816520803626707 -0.006450556112434021 -0.000470096565960442)
(0.9845109880807422 -0.005666118694487315 -0.00614375573904967)
(0.9374139684998952 -0.001056198570142239 -0.06397546854645025)
(0.9737981638910708 -0.01972648831808171 -0.04686009123507134)
(0.9652499618526257 -0.0009299358235949683 -0.02236250262077634)
(0.9707261404582899 -0.01249449733845682 -0.01946214938092386)
(0.981514154662031 -0.0003975366797358812 -0.008468164641085926)
(0.972817652581174 -0.01120562957888255 -0.01715574871473568)
(0.9836309145033932 -0.005451710063711078 -0.007664390131201146)
(0.9901096578672839 -0.002541781229539195 -0.003849702064446757)
(0.9828408380747735 -0.0003600964782826523 -0.007595724463019807)
(0.9847262048463472 -0.004941991326557274 -0.006896361567429861)
(0.9822590993963884 -0.0345298437908952 -0.02626583927690859)
(0.97563465367044 -0.02158133326729897 -0.04456043492754835)
(0.9839588356374692 -0.01748695771745198 -0.01231675398194358)
(0.9721646043113268 -0.01370591775246908 -0.01869763697721247)
(0.9890301278792909 -0.008479198722660054 -0.005685242956752358)
(0.9740919706880925 -0.01230220097467994 -0.01651100636946709)
(0.9841971130178522 -0.006025440178127569 -0.007453824772547032)
(0.9924763227134918 -0.004432213368990679 -0.003094519112951445)
(0.9897279769143721 -0.007257295908351627 -0.005216021810335756)
(0.9852615024004643 -0.005470811033194266 -0.006716777510472552)
(0.9445760976817352 -0.03305237388136205 -0.05695056291816206)
(0.9340156635596498 -0.01944587952825318 -0.06561052061312306)
(0.8924508360880503 -0.0256075584427425 -0.05202327908491985)
(0.9093166175306685 -0.04426895422843241 -0.04493595503818142)
(0.9466589639098273 -0.03468523063272279 -0.0552087434860078)
(0.9394813303816875 -0.05603484632234355 -0.03280951579114793)
(0.9594942248741652 -0.04368733239128737 -0.04472074459241575)
(0.9125787635250197 -0.04646161228211401 -0.04358708669219175)
(0.9763251268940698 -0.02355701086486555 -0.04996082862630369)
(0.9522300374702224 -0.03291200536668794 -0.0555040526700309)
(0.9663894242413448 -0.03926663549783262 -0.0449269723503773)
(0.9830135510034328 -0.02755558730145924 -0.04073474424391752)
(0.9295446022930528 -0.001167765261874733 -0.06933069878055619)
(0.9330136351305314 -0.01724609487093278 -0.06644037413297922)
(0.8856227209520876 -0.00152370552390502 -0.05497578297131379)
(0.890903889651561 -0.02266674170514508 -0.05268668427978206)
(0.8861387612561205 -0.05079753877320825 -0.003151474564418011)
(0.8652669097353604 -0.0290907696608481 -0.003654845088635099)
(0.8870382821669314 -0.02632951376774259 -0.0476962571711494)
(0.9047084317038706 -0.04560940047135567 -0.04118233820716456)
(0.9363798574236255 -0.05763081763972991 -0.02975941642849979)
(0.9245349536211034 -0.06408591835770593 -0.002239697713675961)
(0.8902365882166337 -0.05338302880731045 -0.003054515779081856)
(0.908136636416814 -0.04788095474011796 -0.03993957801463888)
(0.8569922773709311 -0.001720408551007799 -0.003860274307668297)
(0.8799174240445981 -0.001564775932753229 -0.05039963655121061)
(0.8633830543874804 -0.02571919103910986 -0.003701325797136088)
(0.8854230484022874 -0.02330022187776511 -0.04830435777043065)
(0.9354685187336279 -0.001113249445818913 -0.06920616985921536)
(0.9743404156233949 -0.02155599695393052 -0.05244705489411652)
(0.9865545160420237 -0.03651147432580531 -0.0258590891601308)
(0.9986154494059307 -5.144224233569275e-05 -5.574554896461713e-05)
(0.998657402918503 -0.000150119573755344 -0.0001631943848766942)
(0.9986340481038249 -0.0001517259703035386 -5.531417564806292e-05)
(0.9988108343118505 -4.343920075622341e-05 -4.588601097447249e-05)
(0.9988273812248715 -4.320280310359786e-05 -0.0001338976426322179)
(0.9988355691692737 -0.0001233688764817914 -0.0001328104656130385)
(0.9988202941663403 -0.0001245149486133205 -4.566198660490092e-05)
(0.998674277619927 -0.000247810725194793 -5.423332049294238e-05)
(0.9987659275772536 -0.0003274721430520688 -0.0001521313873604094)
(0.9987309953777944 -0.0003319395929081605 -5.384393212166017e-05)
(0.9988770975562139 -0.0002024571913107413 -0.0001303497969078259)
(0.9988623616929124 -0.0002051105815145583 -4.480712237831397e-05)
(0.9989091095026127 -0.0002723014733814895 -0.0001253575464189128)
(0.9988910504683541 -0.0002758613821577764 -4.316413996434539e-05)
(0.9987952464289618 -0.0004087016024814893 -5.002775562785969e-05)
(0.9989829643041299 -0.0003433181641509535 -0.0001206245871211049)
(0.9989678845638554 -0.0003460330578723739 -4.145589790858345e-05)
(0.9986860076290932 -4.986971204902967e-05 -0.0002682553547343823)
(0.9987008667392453 -0.0001486287364437976 -0.0002669942034112792)
(0.9988735777816482 -4.22842299414852e-05 -0.0002220808946545412)
(0.9988812626454338 -0.0001207461747694455 -0.0002194688362611256)
(0.9987859270397653 -0.0003162964222175204 -0.0002458448471224099)
(0.9989233405372844 -0.0001971935611280562 -0.000214510166642102)
(0.9989466348312118 -0.0002655305732278343 -0.0002073870648290974)
(0.9990226473288284 -0.0003360293873784294 -0.0001997903558787511)
(0.9974582314685706 -0.0001687774721146571 -0.0001863244644059483)
(0.9972014391830537 -6.355863054038578e-05 -0.0002109540143752813)
(0.997198382018003 -0.0001908143944045899 -7.037669593487854e-05)
(0.997429249008192 -5.679244184714996e-05 -6.26891424058085e-05)
(0.9972166716368676 -0.0001898078850138225 -0.0002100077549471468)
(0.9974424946870818 -0.0001696267975046878 -6.242132042340377e-05)
(0.9974450827906458 -5.650814749900476e-05 -0.0001871230619658902)
(0.9983484189699946 -9.803602760480829e-05 -0.000178468046830393)
(0.9983642409414176 -3.278983800519851e-05 -0.0002476770839613208)
(0.9984706833195518 -3.008923415727527e-05 -0.0001616539240880955)
(0.9984837246840672 -8.741818964204859e-05 -0.0002218931453091699)
(0.9984744558525598 -8.779493317367065e-05 -0.0001616803561155301)
(0.9983697858731743 -9.756952492926717e-05 -0.0002473224762588094)
(0.9983421959530553 -3.291521757762711e-05 -0.0001787692260959502)
(0.9976632281247251 -0.0005783754952121539 -0.0002898093677050647)
(0.9973837097811213 -0.0005418664710391196 -0.000332746003510306)
(0.9975020073797022 -0.0006384344724020215 -0.0004487811936456365)
(0.9976462266374647 -0.0004758827737077468 -0.0004082237040957498)
(0.9976027168839238 -0.0004829434378682184 -0.0002959271060486703)
(0.9977055228639375 -0.0005700408485467036 -0.0003998546353011556)
(0.9974533218361471 -0.0006482683504172255 -0.0003255403400917092)
(0.9984283520455671 -0.0003443924451605846 -0.0001792580387045476)
(0.9985589912448508 -0.0002682313131789199 -0.0001644385118354492)
(0.9984174720438338 -0.0003779677090762956 -0.0002668547633881133)
(0.9984221330653335 -0.0002918138752207988 -0.0002412841623756564)
(0.9985724720110168 -0.0003234654305310751 -0.0001981431408528653)
(0.9984096065680231 -0.0002893213316991328 -0.0001768871944776947)
(0.9984028162738712 -0.0003404329844118232 -0.0002337670272620553)
(0.9979910915368346 -0.0008878975452431972 -0.000257081117449137)
(0.9977230156244613 -0.0009176185009228417 -0.0002976518278196479)
(0.9978683591606466 -0.0009742200591112407 -0.0003955595527172226)
(0.9979360978645795 -0.0008113360223506807 -0.0003676816216829001)
(0.9978988751357883 -0.0008225802043926136 -0.0002662833155978592)
(0.9980261937625873 -0.000875866737660088 -0.0003550279297868177)
(0.9978281758703045 -0.000988469586705448 -0.0002867108746606054)
(0.9976667478132829 -0.0001574598149887298 -0.0006373416319469735)
(0.9973749266078024 -0.0001810746460516903 -0.0006008181098778468)
(0.9974444507559469 -5.908935877444589e-05 -0.0007186341992261571)
(0.9975823684867492 -5.402941511050053e-05 -0.0005366955437916917)
(0.9975947068589324 -0.0001613727960423193 -0.0005344397007013154)
(0.9974581555434106 -0.0001764747310246208 -0.0007155116229621248)
(0.9976548197690958 -5.271865917745488e-05 -0.000639996968401385)
(0.9978271578697414 -0.0005462011344920205 -0.0006019976106736914)
(0.9975651893108712 -0.0006256683443292705 -0.000565364351272856)
(0.9975778269488941 -0.0005097340186295706 -0.0006882823393421478)
(0.997702841720288 -0.0004667140544469613 -0.0005147450682681292)
(0.9977605643788028 -0.0005592413852446527 -0.0005043159590600158)
(0.9977713453510219 -0.0004556565929360134 -0.0006142350406821422)
(0.9976414447617221 -0.00061023512273259 -0.0006738060782443521)
(0.9978190857574414 0.0002236490296422989 0.0001605183402404866)
(0.9987744749046071 -0.0001959705093869861 -0.0008606001960163907)
(0.9987737228961125 -0.0008730190486001233 -0.0002298343263810093)
(0.9984540123411229 -0.0002761638227171629 -0.0003041336471989845)
(0.9973022047502085 -0.001607789122355849 -0.001548028487304435)
(0.998417849266464 -0.0003257382534380999 -0.0002276099389510151)
(0.9984047143399819 -0.0001965448718670558 -0.0003573762564670811)
(0.9981269132939358 -0.000840847504786254 -0.0005352850468448367)
(0.9978875046964031 -0.0008656090464307055 -0.0006173521815170813)
(0.9979205221477936 -0.0009556324421867421 -0.0004987635397571862)
(0.997984382420955 -0.0007966480053502316 -0.0004641029187445524)
(0.9980717692259976 -0.0008601152716186826 -0.0004481578966781446)
(0.9980426832932012 -0.0007787197908137338 -0.0005543398939309073)
(0.997983584953567 -0.0009330280167514114 -0.0005950108833817783)
(0.9943596447518772 -0.003893171648017786 -0.00117188023497146)
(0.9931277509709099 -0.00434840384157276 -0.001476660337344536)
(0.9940612182834653 -0.004358203368069964 -0.001845497589491341)
(0.9940431633221823 -0.003629290388564178 -0.001712974751882641)
(0.9945794343431853 -0.003778905197341525 -0.001591184496816111)
(0.9937976667871964 -0.003741886130476027 -0.001262661594080129)
(0.9937981424438761 -0.004500973314599407 -0.001362681218289604)
(0.9974509868633156 -0.001234604808970672 -0.0003596006165666734)
(0.9975284920702153 -0.001026305141142969 -0.0003336163988978264)
(0.997369241712492 -0.001132123767563881 -0.0005162954222734047)
(0.9976949145558579 -0.001086403158553197 -0.0004419608048092168)
(0.9976488343323603 -0.001103255404384993 -0.0003206388748762739)
(0.9975039722843694 -0.001214627981161417 -0.0004951895087157837)
(0.9973128397724836 -0.001151023534142881 -0.0003750233174403424)
(0.9951798980242066 -0.003463310857384482 -0.002286314844752851)
(0.994224873026184 -0.003819248521626256 -0.002841784912520946)
(0.9943913655025876 -0.004177705885634998 -0.002271695812329311)
(0.9943524284378461 -0.003486502044735774 -0.002113290358001948)
(0.9948567005378443 -0.00363382469651966 -0.001965188561628193)