/*--------------------------------*- C++ -*----------------------------------*\
  =========                 |
  \\      /  F ield         | OpenFOAM: The Open Source CFD Toolbox
   \\    /   O peration     | Website:  https://openfoam.org
    \\  /    A nd           | Version:  7
     \\/     M anipulation  |
\*---------------------------------------------------------------------------*/
FoamFile
{
    version     2.0;
    format      ascii;
    class       volVectorField;
    location    "0";
    object      grad(Phi);
}
// * * * * * * * * * * * * * * * * * * * * * * * * * * * * * * * * * * * * * //

dimensions      [0 1 -1 0 0 0 0];

internalField   nonuniform List<vector> 
12676
(
(-1.000674735209103 -6.857265093785077e-06 -0.0001268444187848997)
(-1.000513708564491 -2.713803231011112e-06 -5.311306963603731e-05)
(-1.0004215244433 -1.578657038468585e-06 -3.930184883922429e-05)
(-1.000357747558492 -1.108802757516068e-06 -2.922449532745922e-05)
(-1.000310855018235 -8.311900077192278e-07 -2.197669661827276e-05)
(-1.000276238515236 -6.497602498781716e-07 -1.654967747284006e-05)
(-1.000250781036192 -5.28001942766054e-07 -1.233563286458193e-05)
(-1.000232374911984 -4.463231766222844e-07 -8.930042654256491e-06)
(-1.000219605945866 -3.929325201964733e-07 -6.054877218011415e-06)
(-1.000211551388011 -3.606795069021671e-07 -3.511941082709993e-06)
(-1.000207654970192 -3.454810534661305e-07 -7.675265522033502e-07)
(-1.000909893528523 -1.416688083118114e-05 -0.0002454016873832835)
(-1.001750782388905 -6.452451570484751e-05 -0.0005859330835150944)
(-1.000976967888801 -2.086293052368057e-05 -0.00025619111710145)
(-1.042162672331243 -0.002748268936640783 -0.04740970106519846)
(-1.014945150428816 -0.0002182202176412266 -0.01460646166636962)
(-1.007746993411033 -6.782249439410796e-05 -0.00534934023501268)
(-1.002932029875564 -0.0001590824899838099 -0.00121840899465495)
(-1.002624091015156 -0.0001311673370780029 -0.00104133270549503)
(-1.073180513564806 -2.215315412657092e-05 -0.002954876228511559)
(-1.062642569581266 -0.0006538904522579032 -0.002419287920277894)
(-1.10701020457787 -0.01060551127761464 -0.09634959801335573)
(-1.157288348640078 -5.048310799044581e-05 -0.008048458004352265)
(-1.111115554413764 -0.0006906003243480475 -0.1000064658889941)
(-1.151507588918034 -0.0007891828462663621 -0.007767183288604841)
(-1.131522971683831 -0.001724645992021696 -0.00664851560170151)
(-1.093542870554135 -0.02263596390599744 -0.0822082684007908)
(-1.105832124641398 -0.01208634307653985 -0.09524526321025457)
(-1.149822263539232 -0.0009012806318679483 -0.007681651153402549)
(-1.001780657349416 -9.461464352844822e-06 -0.0006037864142178703)
(-1.001849769899278 -9.784188261509295e-06 -8.872098675295025e-05)
(-1.001882645685337 -1.415060386047016e-06 -9.138699243876079e-05)
(-1.001358702910311 -5.825325245768078e-06 -0.0004094727004595294)
(-1.001420804214097 -8.771503537183494e-07 -6.249980821327727e-05)
(-1.001340009718293 -3.996523456788299e-05 -0.00039924172044453)
(-1.001400701153492 -6.120768646708443e-06 -6.097536970833526e-05)
(-1.000987011564722 -3.294577848140967e-06 -0.0002598200460704539)
(-1.001009761476494 -3.316894196738684e-06 -3.974550253731389e-05)
(-1.001020412069216 -4.955796731108178e-07 -4.045045625743698e-05)
(-1.001249318115586 -4.989222557145777e-06 -0.0003628584652816383)
(-1.001302327629892 -7.538744630260953e-07 -5.561553407702281e-05)
(-1.001233209133463 -3.426219273866934e-05 -0.0003541843964212602)
(-1.001285180979975 -5.267174261534842e-06 -5.432064207073638e-05)
(-1.055482256597523 -0.0002841746689918322 -0.0357259623131722)
(-1.016313829155768 -0.0002565833614670522 -0.01682368232822134)
(-1.024083113026832 -2.027042717237746e-05 -0.001379165724404011)
(-1.039563734318945 -0.008655952130150982 -0.04316551742561183)
(-1.053205539687606 -0.004734090941481414 -0.03381416217406703)
(-1.015122957168733 -0.003458129592669837 -0.01471787526560207)
(-1.021916607258953 -0.0002754269817545897 -0.001199085322801198)
(-1.02140291358439 -1.703674904357498e-05 -0.001179713122991603)
(-1.008367824994983 -7.740757305292274e-05 -0.006010981232896938)
(-1.010424852177142 -5.681872611960483e-06 -0.0004557699657483803)
(-1.01389864430984 -0.002948087540669452 -0.01285355748652819)
(-1.019578525382207 -0.0002321744882502129 -0.001032202842370632)
(-1.007939023764132 -0.001067375404228219 -0.005494872675442966)
(-1.009806795279014 -7.96122439028563e-05 -0.0004143633531514802)
(-1.009527614012644 -4.928241981266518e-06 -0.000418765778169213)
(-1.004946257659008 -5.606043526838609e-05 -0.002582352572527963)
(-1.005586322014141 -8.539712584996569e-06 -0.0003968480272760748)
(-1.007358876356271 -0.0009567459107115409 -0.004923064062007037)
(-1.00898945154835 -6.93930061383392e-05 -0.000382405139018201)
(-1.004784036462774 -0.0003711912601946449 -0.002436313680522293)
(-1.005387493937184 -5.68611793128434e-05 -0.0003739907025373959)
(-1.003182441242388 -2.404718667461586e-05 -0.0001843986733012655)
(-1.004333076309828 -4.456531002828378e-05 -0.002138404347006166)
(-1.004837097620838 -6.753811802857129e-06 -0.0003268780897619988)
(-1.003004081523707 -2.362919927928288e-05 -0.001271033470112053)
(-1.003265316700832 -3.542766156890255e-06 -0.0001924118614232459)
(-1.00420192673 -0.0002966319250987724 -0.002027188026764325)
(-1.004679557145487 -4.520754815899373e-05 -0.0003095873531777549)
(-1.002829310988061 -1.980952564928354e-05 -0.0001573886133204907)
(-1.001926567251985 -7.638832658350301e-05 -0.0006715908694543592)
(-1.001961817868321 -1.122625637134551e-05 -0.0006934335299550401)
(-1.002044265161846 -1.155858025932982e-05 -0.0001015386963356518)
(-1.002083341941828 -1.677437091538423e-06 -0.0001048093090250409)
(-1.002683841262583 -1.942481478504114e-05 -0.001083091375499631)
(-1.002897297823816 -2.906729877734503e-06 -0.0001637146249763921)
(-1.20799800308632 -0.005967351175999261 -0.1198208994879399)
(-1.161631200001873 -0.01491699950104144 -0.1932947693314588)
(-1.162993194888651 -0.01246645148790111 -0.1944795436677174)
(-1.203111102886388 -0.01031413005585635 -0.1176056738199369)
(-1.098732854159342 -0.00956833788972232 -0.0848649808785993)
(-1.074760587168884 -0.0004224080423673403 -0.05497533462719447)
(-1.141467461265033 -4.56024785246733e-05 -0.007003991607997566)
(-1.070658543177876 -0.0003361108516093466 -0.002832325786564738)
(-1.073832527685287 -0.003803513515823279 -0.05417881156952122)
(-1.102483055539813 -0.0006268080197704794 -0.08820414541837082)
(-1.136249922745351 -0.0007091779354811127 -0.006748345907048064)
(-1.165875302979788 -0.02855540913948574 -0.2163476160850945)
(-1.192269462837846 -0.01698871515331551 -0.1122116190319066)
(-1.158181374474418 -0.02010811155783964 -0.1901646574488414)
(-1.2008842325472 -0.01187439652227684 -0.1165527941112459)
(-1.153738191467344 -0.02577318995216398 -0.1858436720206618)
(-1.118489812365758 -0.001515917298259803 -0.005759871282175194)
(-1.067635061592501 -0.01036939781439516 -0.04851085315399272)
(-1.086530092878898 -0.02004201089780923 -0.07227882516220019)
(-1.097659966835807 -0.01088550813776877 -0.0838641949292061)
(-1.069943521736084 -0.0003795086830767068 -0.002796826898247681)
(-1.068710871761823 -0.009590709314801622 -0.04953599415850903)
(-1.134736422141101 -0.0008083297426624181 -0.006671210359173969)
(-1.209054413607934 -0.004602907056634342 -0.1202824951412953)
(-1.166316680879443 -0.001097770809217587 -0.1972468039300016)
(-1.165668777002722 -0.005525198005614924 -0.1967229795472248)
(-1.210599289247198 -0.0006487768832500824 -0.1209447332256522)
(-1.223936002017654 -0.003641859086594759 -0.09721037758734961)
(-1.249848104261983 -7.505265188518013e-05 -0.01480053817524533)
(-1.225562211107858 -0.0005131162870113682 -0.0977376617110724)
(-1.248085079483634 -0.0005335836901711103 -0.01472020671240008)
(-1.222821976823623 -0.0047223065626429 -0.09684299676149796)
(-1.241275401651171 -0.001198897821278206 -0.0144048729197145)
(-1.217656784820706 -0.00816969727711162 -0.0950790148125767)
(-1.246879336344464 -0.0006920322976065026 -0.01466576439964339)
(-1.186699418376401 -0.00542133202172376 -0.1027319515018473)
(-1.125858407183133 -0.01299878580715901 -0.1254922810385369)
(-1.118133216350628 -0.008503152513361917 -0.1116680276582431)
(-1.133970031876543 -0.0068294380335682 -0.06520179125713177)
(-1.128147631555121 -0.009378990253626013 -0.1275688247141478)
(-1.137287691860405 -0.004028449483023167 -0.06677393122569851)
(-1.182252771751529 -0.009322776107846712 -0.1006843482951332)
(-1.199850711858439 -0.003310482579204141 -0.0830996383797573)
(-1.221118492744904 -6.808263382155841e-05 -0.01259632988564497)
(-1.14613009851853 -0.0003491836107805908 -0.0540389790534001)
(-1.156068039276387 -0.0003596068337840485 -0.007990506919569257)
(-1.144991462484519 -0.002463850619730958 -0.0536468770238268)
(-1.201348228214415 -0.0004671392391902942 -0.08359501598293489)
(-1.219500620335129 -0.0004845530657023683 -0.01252183751943144)
(-1.187665915441235 -0.004186288183248833 -0.1031617733332166)
(-1.130585770826031 -0.00251026056771984 -0.1296818767955809)
(-1.110678461370056 -0.003464251300286272 -0.09963111474282378)
(-1.139104355861104 -0.0004424749724901125 -0.06760407872708558)
(-1.130240350480089 -0.004195575240315265 -0.1293887107629949)
(-1.138017382670842 -0.003120388941121514 -0.06710997491268864)
(-1.189089836462998 -0.0005909914144840711 -0.1037845172578735)
(-1.198833001743429 -0.004287940582693978 -0.0827578173283418)
(-1.213324569369616 -0.001082092321279351 -0.01223046642113878)
(-1.1407443796216 -0.005397016201239691 -0.0521316630972743)
(-1.155247943942193 -0.0004645607753388395 -0.007951200647590173)
(-1.144226604208606 -0.003181348881314943 -0.05338017429078789)
(-1.19414142132616 -0.007380199726364774 -0.08112849370059823)
(-1.218401808181281 -0.0006278220799285073 -0.01247126329577015)
(-1.206137292043808 -0.01348658557593715 -0.09077480912174166)
(-1.238707243267417 -0.00138181257409675 -0.01428056330574603)
(-1.215297479310988 -0.009409711212863223 -0.09423990567217751)
(-1.228684403222351 -0.001985947212860883 -0.01376597256487178)
(-1.198057702412912 -0.03832427758595775 -0.1671880605751518)
(-1.138183182039478 -0.04235335999008787 -0.1676392980607407)
(-1.178448662762381 -0.03365548266657561 -0.1407983813603639)
(-1.188714137652203 -0.01885340252598245 -0.110289931641223)
(-1.145161400123873 -0.03531886215062541 -0.1764595180570997)
(-1.23371424647038 -0.01002852717662619 -0.04482249932615623)
(-1.224943861398234 -0.01650431130655747 -0.07304840876897897)
(-1.202340972300066 -0.01497842894253 -0.08923803637846493)
(-1.224505573016703 -0.002208241848163406 -0.01353715870756208)
(-1.164176056034257 -0.002245150953538386 -0.009028224796770776)
(-1.140940078377142 -0.009681819901284435 -0.03771082890343273)
(-1.15726298490929 -0.01104670185755572 -0.04399869731162636)
(-1.180382137853964 -0.01331396752040333 -0.07582102326686861)
(-1.140784526016207 -0.00136847745196156 -0.007195050824423357)
(-1.130820801776091 -0.00932927693390217 -0.04826184803679901)
(-1.19830848808599 -0.001960419725648644 -0.01144289137412038)
(-1.121272990284513 -0.02607360468233326 -0.09866418993601905)
(-1.109665228052664 -0.01764736187174985 -0.06580156788188184)
(-1.132301778594844 -0.02277595144584453 -0.08761362488825374)
(-1.169288445888437 -0.01677257707056535 -0.09403222498056912)
(-1.105840360892618 -0.02211112473291672 -0.099333473966275)
(-1.114632941968862 -0.02486466953111136 -0.1139126644922915)
(-1.124554319290947 -0.01178291771916625 -0.06034010165386056)
(-1.17247247919513 -0.01517482238037554 -0.09576376688066787)
(-1.12444206897839 -0.01487147935756116 -0.1241615479804869)
(-1.103032844037186 -0.01509886890453804 -0.09252055911412353)
(-1.132480828187804 -0.007793108035041736 -0.06447235090427371)
(-1.180235078226391 -0.01070762973209062 -0.09971696826783549)
(-1.121062211494068 -0.01875193229014865 -0.1208386682686064)
(-1.126834104425048 -0.0107705592942434 -0.06157170200171494)
(-1.183772769193495 -0.01203738770217017 -0.07720475336856676)
(-1.211008640124084 -0.001244139813355402 -0.0121164436580324)
(-1.143395541229287 -0.001249400938197525 -0.007340450309741325)
(-1.13917886005948 -0.006160431291153637 -0.0515519070935525)
(-1.192007936851512 -0.008479965239484371 -0.08035805070758677)
(-1.133229063757071 -0.008523842668829029 -0.04924345672315951)
(-1.202026720642859 -0.00177054808975834 -0.01164868358743314)
(-1.096651729362085 -0.01165404882109167 -0.1037123499169749)
(-1.100348063913731 -0.0007603992495880062 -0.1076957493107929)
(-1.089868738234318 -0.01052580682241758 -0.09167462572130283)
(-1.069623452596026 -0.0004671115769717343 -0.06005699547766767)
(-1.068770681056906 -0.004203952251399004 -0.05918375863323873)
(-1.093258977672845 -0.000690771497551625 -0.09531592016731487)
(-1.084726331435709 -0.02472622144981354 -0.08843236758360197)
(-1.095596470762989 -0.01327410112030947 -0.1025122985340136)
(-1.078991694893269 -0.02193566733132751 -0.07804771613866231)
(-1.063103749286642 -0.01143641389136696 -0.05298876574735487)
(-1.088903124792484 -0.01196907732817425 -0.09058564182553708)
(-1.064084212974442 -0.01058125493571098 -0.05410703853149444)
(-1.226816966585123 -0.0109897731380708 -0.04345822264645939)
(-1.218315741516805 -0.01807318426172863 -0.07081303435232586)
(-1.192225744181119 -0.04209692441787682 -0.1621722866018884)
(-1.134341239571795 -0.04599899157109709 -0.16225823706768)
(-1.173288305060521 -0.03670222274580914 -0.1363745330564216)
(-1.127967328840241 -0.001838553087689019 -0.006426464816950035)
(-1.137067888633533 -0.01035730025068449 -0.03645001517220395)
(-1.159526929546555 -0.002414646293493707 -0.008729081786277848)
(-1.152843279192151 -0.01187248372862594 -0.04253703989283411)
(-1.106839289447386 -0.01877331312274074 -0.06360587466703703)
(-1.091252468832393 -0.02404207785265053 -0.07947346095619159)
(-1.118057659968789 -0.02792388754830307 -0.09536617380333788)
(-1.128716314698349 -0.02441952574154742 -0.08468920806077221)
(-1.000916096721859 -3.278177200121476e-06 -0.0002348518932558472)
(-1.000861678798092 -1.049226177128355e-05 -8.441216170462073e-05)
(-1.000945639001386 -4.439260740195787e-07 -3.747377774133499e-05)
(-1.00077585428685 -4.425296887026777e-06 -0.0001528498868659012)
(-1.000769198034336 -1.221785455363798e-05 -0.000148385710447312)
(-1.000784877328475 -4.252598078313363e-06 -5.330512025674959e-05)
(-1.000790520402652 -1.42948135376568e-06 -5.400596158319911e-05)
(-1.001651023914171 -2.879944634001949e-05 -0.0003783717754289285)
(-1.001765613870769 -4.675428377104129e-05 -0.000594769971582414)
(-1.001799688182075 -4.690065018473132e-05 -0.0004260252783764795)
(-1.001596414172983 -5.477677896876931e-05 -0.0005134633881339717)
(-1.001815249605553 -3.398378153739492e-05 -0.0004324814460786547)
(-1.001609049934341 -3.965400784212586e-05 -0.000520743866288571)
(-1.001637813237432 -3.978377281320016e-05 -0.0003730573253266887)
(-1.001078070085123 -1.309766365023402e-05 -0.0002073028343560891)
(-1.000982068697633 -1.567488576680571e-05 -0.0002581010451854592)
(-1.000992522399063 -1.482782153590955e-05 -0.0001849801324206428)
(-1.001053128199449 -2.501271608843086e-05 -0.0002827490885032278)
(-1.000997810118388 -1.126216167503496e-05 -0.000186588507536332)
(-1.00105914258972 -1.816935752450492e-05 -0.0002859171920772814)
(-1.001071962943293 -1.792800283408397e-05 -0.0002049496294179839)
(-1.041983398741092 -0.003523745484535855 -0.04712458293512423)
(-1.028243659645196 -0.0004635008993361738 -0.05381551398554052)
(-1.025022180341393 -0.003007100259008393 -0.04130317872379437)
(-1.032775521597095 -0.002440813195272464 -0.02126337186612989)
(-1.025217828352515 -0.0006137955548979611 -0.03627141212238043)
(-1.024981114998992 -0.003044552023838275 -0.03564177001435382)
(-1.033542073842199 -0.0003570131078263942 -0.02215085487909227)
(-1.013700174234672 -0.000616604706597032 -0.006316900827165723)
(-1.018856305492264 -0.0001456034876754556 -0.009890678882279883)
(-1.012579780092812 -0.0001594691225254114 -0.01113990192849042)
(-1.013601067436189 -0.0009217156802208702 -0.01256644672497042)
(-1.018519143522947 -0.0009976865220708672 -0.009617122477560448)
(-1.012489501463443 -0.0007895202586760944 -0.01100146966933207)
(-1.013913314418431 -8.982791291722469e-05 -0.006473769916568991)
(-1.007071205249327 -0.0002043430817343209 -0.002843088058811289)
(-1.008853439621432 -4.343760018300402e-05 -0.003471504308812334)
(-1.006597828388112 -9.265651871815587e-05 -0.003861163984778741)
(-1.007112288253535 -0.0002587013242847257 -0.004735808335192386)
(-1.008747163393429 -0.0002989271727766152 -0.003405313819148397)
(-1.007121519494546 -6.877682992963139e-05 -0.00287656085789632)
(-1.006553319476588 -0.0002753313486408673 -0.003816667056021946)
(-1.003487819152802 -0.000103894631259171 -0.001075660322254105)
(-1.00305488774486 -0.0001163043651413815 -0.0008914135567952772)
(-1.002967702199445 -0.0001159446843085719 -0.001244353221814263)
(-1.003290344314815 -0.0001943045594800439 -0.001434236827579475)
(-1.00309315567843 -8.477708416472972e-05 -0.0009105478379913572)
(-1.003333592839155 -0.0001418335750665752 -0.001467170366117322)
(-1.003441136817305 -0.0001423062656013099 -0.001051299258261632)
(-1.002467784239387 -5.769857669287518e-05 -0.000664941879056047)
(-1.002724943281308 -9.575027363001484e-05 -0.000760615343373949)
(-1.002358180672014 -0.0001088700894171257 -0.000895037284116259)
(-1.002653691980385 -9.546732109391457e-05 -0.001061940715586993)
(-1.002756526309105 -6.969602371112106e-05 -0.0007757761758304115)
(-1.002382886027997 -7.91394684598645e-05 -0.0009115342420912019)
(-1.002441551532539 -7.936955184998287e-05 -0.0006528315905545884)
(-1.174476907692222 -0.01636175894746703 -0.2243563769396766)
(-1.172736111710417 -0.0191880108785082 -0.222826927277159)
(-1.203285712625778 -0.01465021498754968 -0.2097606739868992)
(-1.201333828673078 -0.01719275994062087 -0.2083767714055908)
(-1.089978314330565 -0.00148032588351789 -0.0282264871480372)
(-1.070069438442734 -0.0001555413081918562 -0.02018276558691751)
(-1.095522235385593 -3.019598932720272e-05 -0.004188485029816522)
(-1.072637882908741 -0.0001579858056800391 -0.002928872323023275)
(-1.069554549721123 -0.001089500848725962 -0.0200045374653265)
(-1.09067369210662 -0.0002109158085415091 -0.02847032995260708)
(-1.094785163285057 -0.0002151418933338403 -0.004152792397909342)
(-1.170725918871386 -0.02214969748684635 -0.221004996516441)
(-1.168440816585972 -0.0252659793254784 -0.2188583764897449)
(-1.196491647536115 -0.0226793513276484 -0.2047802009066704)
(-1.199072327863233 -0.01986285946722158 -0.2067265665747982)
(-1.081675352787313 -0.005223636371280243 -0.02513502305309306)
(-1.074093508925628 -0.0008221861852423371 -0.003035584717377836)
(-1.066560090367677 -0.003626005109410285 -0.01334724762215186)
(-1.066241228501114 -0.000544695627201715 -0.002608137136705418)
(-1.063496094104813 -0.003744316180252302 -0.01781177688797143)
(-1.085955157201844 -0.0007619757855670179 -0.003698902430520068)
(-1.072373999772911 -0.004068500904309861 -0.01496582720179038)
(-1.179527098644566 -0.001197809793595182 -0.2285328021112801)
(-1.179301495692076 -0.003602025302780635 -0.2283574711930015)
(-1.208651820452718 -0.003219052884675035 -0.2133623391167495)
(-1.208897770398157 -0.00107023462978927 -0.2135161058339615)
(-1.317139733371361 -0.0008131141829689425 -0.061883902828575)
(-1.324009514931848 -9.091553753395912e-05 -0.02088322141139503)
(-1.317453895134962 -0.0002705366832166019 -0.0619258135131114)
(-1.323686288469103 -0.0002725373330074813 -0.02086700155727393)
(-1.309988217106557 -0.003715366583227605 -0.06094193893521564)
(-1.313741240123478 -0.001462799322476202 -0.02042901369681455)
(-1.307338673441202 -0.004368853809883409 -0.06057952076144352)
(-1.316429363506892 -0.001243820686892438 -0.02055044694394316)
(-1.116040194149167 -0.01174698072071391 -0.1097638888385397)
(-1.117168528506302 -0.01011113623904661 -0.1107999505953541)
(-1.108039963494864 -0.009143558687699727 -0.0972946373517149)
(-1.128901494589675 -0.009010011750998522 -0.100904802220042)
(-1.116853529317265 -0.009445785989091987 -0.08743849773562239)
(-1.117981842358024 -0.008140207570108807 -0.08828777766237078)
(-1.127660595802408 -0.01047273181665375 -0.0999726995847907)
(-1.172980434110827 -0.0005059800036146297 -0.02763881839158643)
(-1.175504606525184 -5.583527636043637e-05 -0.009293748098945417)
(-1.155375079597308 -0.0001521337136476288 -0.02397583288090434)
(-1.157085920199793 -0.0001528996808273289 -0.008038853919814451)
(-1.155175020357293 -0.0004581628088775087 -0.02394733479355132)
(-1.173200316370815 -0.0001680300399537925 -0.02766983770462198)
(-1.175281963320944 -0.0001689474532511137 -0.009283242296816418)
(-1.110970023650411 -0.002074628625531746 -0.09988186829538849)
(-1.120370098783776 -0.002283599269969449 -0.113618922657096)
(-1.120528527616864 -0.0007600268589691979 -0.1137537936508211)
(-1.132409155107544 -0.002032082070155005 -0.1034361568583984)
(-1.121340289723457 -0.0006139470407281314 -0.09072057612772903)
(-1.121181830590271 -0.001844654146349308 -0.0906089880442376)
(-1.132582087726735 -0.0006762042274822334 -0.1035569872006224)
(-1.168485725101683 -0.002253767745775385 -0.02699011091134336)
(-1.169107498178624 -0.0008776529223128194 -0.008985402739331984)
(-1.149661767711734 -0.002359428736396543 -0.02313664081986301)
(-1.152971108590992 -0.0006791242832565606 -0.007840132999472822)
(-1.151107864325203 -0.002030643035459797 -0.0233544002723204)
(-1.166880476383621 -0.002623471127268506 -0.0267503313381389)
(-1.17073277113284 -0.0007538822180985655 -0.009065742761646678)
(-1.300680930989538 -0.005793411298304128 -0.05963432747417716)
(-1.310600815889228 -0.001694304011168369 -0.020283757809994)
(-1.304244428562959 -0.005059498160887103 -0.06014644459890944)
(-1.306982658142228 -0.001940392938616435 -0.02011187951406937)
(-1.148745524561259 -0.04804125353704926 -0.1962888366572653)
(-1.173738246598579 -0.04355281627153439 -0.1841642836111785)
(-1.152739834130371 -0.04372933637069223 -0.2015531514794414)
(-1.178437250724846 -0.03955435061651097 -0.1890011053194007)
(-1.2674872108252 -0.01146359360857503 -0.05410048741951171)
(-1.273199883318865 -0.003845143315145718 -0.01825331323437852)
(-1.274639560493389 -0.01033943777087325 -0.05541876546568316)
(-1.280491881364875 -0.003466892881594139 -0.01869608518154297)
(-1.146606563592502 -0.001966039981744455 -0.007721686828707309)
(-1.144693657091852 -0.005869294955266681 -0.022981810477882)
(-1.129943607795754 -0.005150019176963412 -0.0197997908172601)
(-1.148417962779315 -0.005449366367664265 -0.02367344422389559)
(-1.134847287599649 -0.001607261325475058 -0.006850107297316073)
(-1.133220012996688 -0.004800378708519196 -0.02040073434074371)
(-1.150388405534163 -0.001824993169420535 -0.007953768806452184)
(-1.101928911807012 -0.02027087771620121 -0.07465360515539102)
(-1.111102347002068 -0.02297311289718499 -0.08560825182028292)
(-1.101182640056617 -0.02560543261430609 -0.09390391447077158)
(-1.103584972009372 -0.02387251051433555 -0.09675746619291305)
(-1.095710854859343 -0.02117222288568979 -0.08471044781097256)
(-1.113807455872954 -0.02139699920269867 -0.08820560820808458)
(-1.104352348693271 -0.018944377745846 -0.07692574807978064)
(-1.11474775266581 -0.01341232441975094 -0.1085492833060697)
(-1.10450606572014 -0.01358502500138523 -0.09397230932190577)
(-1.113291056466809 -0.01510734861202698 -0.1071440724974553)
(-1.124627523800373 -0.01348444406863526 -0.09761221576823388)
(-1.115560446369811 -0.01076997008553562 -0.086445209799708)
(-1.114102067575529 -0.01211210954291744 -0.08529913955731039)
(-1.126236379409876 -0.01196402824900639 -0.09887894907040796)
(-1.162923987302346 -0.00339005879377798 -0.02614054973984601)
(-1.16723195854161 -0.001004435563083627 -0.008890876582169843)
(-1.147911088553423 -0.00101544293616901 -0.007582673593977966)
(-1.147996862497037 -0.002694237778965275 -0.02288134047156984)
(-1.14610930845188 -0.003035127688658231 -0.02258593874019978)
(-1.165028491582056 -0.003002084892678853 -0.02646824284129592)
(-1.165100096459456 -0.001134388211309068 -0.008781054175151558)
(-1.001659931248365 -1.742683738733483e-05 -0.0003819713668154966)
(-1.001775619530862 -2.831348227769312e-05 -0.0006007612092963548)
(-1.001831037481 -6.87187295563108e-06 -0.0004390689398710407)
(-1.001621854947754 -8.014955416621047e-06 -0.0005281635781532049)
(-1.001825749902418 -2.057782415149483e-05 -0.000436858816609281)
(-1.001664414501076 -5.81607916545631e-06 -0.000383787476361075)
(-1.001617568097123 -2.399793178124682e-05 -0.0005256752073505517)
(-1.001679547790705 -1.753599690901288e-05 -0.0002304055027305232)
(-1.001832975983911 -2.856188558578922e-05 -0.0002594299349942401)
(-1.001866087011829 -7.08160249389598e-06 -9.004132609670999e-05)
(-1.001680114249525 -8.329465308982945e-06 -7.791793762147226e-05)
(-1.001849038355846 -2.0692563428634e-05 -0.0002633625543495517)
(-1.001693917339997 -6.022273660909001e-06 -7.900380720422905e-05)
(-1.001665944080891 -2.422862824437719e-05 -0.0002271701646262823)
(-1.00168872125357 -1.060734487732762e-05 -0.0002325966413952373)
(-1.001865337187569 -4.176076171365123e-06 -0.0002673746243321713)
(-1.001877099474352 -4.278992427737005e-06 -9.093605777435843e-05)
(-1.001707911572505 -1.200665921514565e-06 -8.010885998790999e-05)
(-1.001859878162955 -1.252560682994337e-05 -0.000266028809846008)
(-1.001693338843633 -3.533881011324222e-06 -0.000233701759009658)
(-1.001703225820619 -3.635784459781159e-06 -7.973879862892296e-05)
(-1.001514421022831 -1.48248817693614e-05 -0.0003354955727902187)
(-1.001482116486864 -6.820307595955388e-06 -0.0004640533582434215)
(-1.001389480057924 -4.21950627566303e-06 -0.0002972307689396879)
(-1.001355558120079 -1.745904414135041e-05 -0.0004077470721586799)
(-1.001386216126767 -1.265648592152501e-05 -0.000295972567321601)
(-1.001518239211581 -4.94482984763684e-06 -0.0003370004815830867)
(-1.001478452168139 -2.043173707350375e-05 -0.0004619901317356657)
(-1.001538825251694 -9.024089170789203e-06 -0.0002043203793349091)
(-1.001555077000769 -1.024026249095762e-06 -7.058270660389333e-05)
(-1.001410330950798 -2.56349724584463e-06 -0.0001810640802773231)
(-1.001417419346971 -2.663060352749644e-06 -6.224378550671857e-05)
(-1.001406986534154 -7.704778616138906e-06 -0.0001802988237052022)
(-1.001542748181166 -3.004267478294251e-06 -0.0002052357617592521)
(-1.00155110110037 -3.105126833350617e-06 -7.027633692623156e-05)
(-1.001506831563677 -2.451465321595073e-05 -0.0003325097714100998)
(-1.001460353650495 -4.670710892478803e-05 -0.0004518496567671148)
(-1.001349303421708 -2.888207472534976e-05 -0.0004043180773963389)
(-1.001370085656303 -2.897342506221671e-05 -0.0002897628251764639)
(-1.001379725792398 -2.09388819992183e-05 -0.0002934708491083238)
(-1.001471167589478 -3.37820215995824e-05 -0.0004578977847065529)
(-1.001495567175419 -3.389520270594841e-05 -0.0003280958001521545)
(-1.00153102842623 -1.49281741868869e-05 -0.0002025033459340641)
(-1.001531474251 -7.126487259414836e-06 -6.876537040126443e-05)
(-1.001410690655739 -4.417217645376123e-06 -6.17332310038589e-05)
(-1.0013904648698 -1.764763177028237e-05 -0.0001765173258964306)
(-1.001400337525229 -1.275160426096906e-05 -0.0001787760907940931)
(-1.001543199440522 -5.147354537263207e-06 -6.966700425486013e-05)
(-1.001519457953016 -2.06444253556191e-05 -0.0001998164510834748)
(-1.001082171997402 -7.98101301388693e-06 -0.0002087793313210563)
(-1.000985230680217 -9.668040890258911e-06 -0.0002594201231570473)
(-1.001003252777338 -2.360039799655764e-06 -0.0001880734803186127)
(-1.001065086948538 -3.701187770283108e-06 -0.0002888938944927812)
(-1.001001380396229 -6.975129801950925e-06 -0.000187635070052568)
(-1.001084253259542 -2.672608396983324e-06 -0.0002094742316614537)
(-1.001063074186693 -1.103783274182965e-05 -0.0002879613811522601)
(-1.001091052369526 -7.960303415406988e-06 -0.0001263615238041964)
(-1.001003976943497 -8.921583937086573e-06 -0.0001124299866068729)
(-1.001014953659861 -2.43933660429107e-06 -4.011068959478651e-05)
(-1.001091459461797 -3.876080831214955e-06 -4.377023521874186e-05)
(-1.001009186768907 -6.816888600354704e-06 -0.0001134518572667217)
(-1.001097596432813 -2.814630738436434e-06 -4.424879900572469e-05)
(-1.001084931001306 -1.08729933958093e-05 -0.0001249043714586411)
(-1.001095214034218 -4.854658323287046e-06 -0.0001272709455054637)
(-1.001014665919956 -1.423994182143094e-06 -0.000114435293580508)
(-1.001018559632522 -1.495978752797635e-06 -4.033645905955952e-05)
(-1.001103898032182 -5.634549073902487e-07 -4.469951214493901e-05)
(-1.001012799768568 -4.225381939807635e-06 -0.0001141375731636367)
(-1.001097324982259 -1.621811618933339e-06 -0.0001277025660620582)
(-1.001101777554692 -1.708400280772099e-06 -4.45528060553626e-05)
(-1.001172077196 -9.281742324133049e-06 -0.000233430643999008)
(-1.001152011304661 -4.283364794480216e-06 -0.0003229849093803365)
(-1.001275607343988 -3.610235294477095e-06 -0.0002633116884216099)
(-1.001246610986662 -1.495613015656174e-05 -0.0003614050782056161)
(-1.001272809330335 -1.08308277360443e-05 -0.0002622527477937133)
(-1.001174481661019 -3.096497045098881e-06 -0.0002343149913365985)
(-1.00114967800534 -1.283010572723682e-05 -0.0003217706286385413)
(-1.001187252854015 -5.64993232361676e-06 -0.00014230858763609)
(-1.001197337370707 -6.499084456501421e-07 -4.973376826522099e-05)
(-1.001293400274167 -2.193252135378144e-06 -0.0001604634226782229)
(-1.00129943949365 -2.290814046789094e-06 -5.540000752451639e-05)
(-1.001290541930352 -6.593624151973752e-06 -0.0001598191192423779)
(-1.001189701336292 -1.880870089335758e-06 -0.0001428481333329582)
(-1.001194868609277 -1.974758277970473e-06 -4.955300384526035e-05)
(-1.001167301487615 -1.533034318379288e-05 -0.0002316322347188439)
(-1.0011381103308 -2.9351756537083e-05 -0.000315578541413049)
(-1.001241225503199 -2.47470325992032e-05 -0.0003585008784297317)
(-1.001258973496228 -2.48003115529311e-05 -0.0002569729853916057)