/*--------------------------------*- C++ -*----------------------------------*\
  =========                 |
  \\      /  F ield         | OpenFOAM: The Open Source CFD Toolbox
   \\    /   O peration     | Website:  https://openfoam.org
    \\  /    A nd           | Version:  7
     \\/     M anipulation  |
\*---------------------------------------------------------------------------*/
FoamFile
{
    version     2.0;
    format      ascii;
    class       volScalarField;
    location    "0";
    object      mag(grad(Phi));
}
// * * * * * * * * * * * * * * * * * * * * * * * * * * * * * * * * * * * * * //

dimensions      [0 1 -1 0 0 0 0];

internalField   nonuniform List<scalar> 
12676
(
1.000674743271927
1.000513709977946
1.000421525216538
1.000357747985989
1.000310855259993
1.000276238652355
1.000250781112396
1.000232374951947
1.00021960596427
1.000211551394241
1.000207654970546
1.000909923712403
1.001750955825735
1.000977000891133
1.04324410774173
1.015050272016833
1.007761193324002
1.002932782582181
1.002624640362804
1.073184581737694
1.062645524722633
1.111245839113169
1.157316336237794
1.115607254103621
1.151534054764177
1.13154381824643
1.096862159067943
1.109992084540184
1.149848275991969
1.001780839349097
1.001849773875495
1.001882649854281
1.001358786647447
1.001420806164823
1.001340090106155
1.001400703028596
1.000987045290089
1.001009762271045
1.001020412886624
1.001249383879004
1.001302329174708
1.001233272365725
1.001285182467301
1.056086747919244
1.016453098502514
1.024084041910484
1.040495528636741
1.053758851924499
1.015235535569755
1.021917347860033
1.021403595006393
1.008385743836369
1.010424954984656
1.013984401306814
1.019579074308735
1.007954566705545
1.00980688343206
1.009527700879538
1.004949577078585
1.00558640035713
1.007371360371271
1.008989526400012
1.004787058703349
1.005387565104886
1.003182458478105
1.004335353818226
1.004837150811001
1.00300488714544
1.003265335158001
1.004204016686868
1.004679605861542
1.00282932353436
1.001926795247447
1.001962057885466
1.002044270373046
1.002083347424309
1.002684426424057
1.002897311190552
1.213940621568738
1.177697936460283
1.179207732621872
1.208889491095837
1.10204696037811
1.076165779783733
1.141488950058156
1.070662342253448
1.075205146868784
1.106005990901352
1.136270183558752
1.186122643100215
1.197658772732854
1.173861588634925
1.20658546945021
1.168894324650767
1.118505670297845
1.068786906743522
1.089115950438282
1.100912848627232
1.069947244481032
1.069901268269343
1.134756320175488
1.215031538872804
1.182878737174268
1.182165029162156
1.216625944377437
1.227795771976447
1.249935736464259
1.229453393626881
1.248171997293193
1.226659876740024
1.241359561313359
1.221390522573033
1.246965774573199
1.191150181242968
1.132905306747946
1.123727699004678
1.1358635252534
1.135376082661845
1.139253387246989
1.186568948043115
1.202729495747467
1.22118346102681
1.147403388489168
1.156095709253458
1.146250193952753
1.204253258393006
1.219565002041425
1.192145210612731
1.138001702886086
1.115143490593621
1.141108776929868
1.137630120547914
1.139998705622476
1.193610579072129
1.201693725053332
1.213386692637031
1.141947712340383
1.155275399803491
1.145475484576941
1.196916886824223
1.218465794656613
1.209623545248833
1.238790328674503
1.218982225344509
1.22876312147983
1.210273876509888
1.151241806587243
1.187307090214517
1.193968433779743
1.159215258642771
1.234568940864443
1.227230999401743
1.205741097475631
1.224582389774938
1.164213227458468
1.141604181273187
1.158151773831137
1.182889716188734
1.14080803656221
1.131888654909819
1.198364725627149
1.125907444676708
1.111754556575289
1.135914701480428
1.173183211763866
1.11051291963051
1.120714478466655
1.126233626763782
1.176474686829863
1.131374039557031
1.107009252321655
1.134341325517547
1.184488483258095
1.127711887298133
1.128566426193115
1.186348785867558
1.211069891685025
1.143419785956352
1.140361357309643
1.194743590751164
1.134330500721733
1.202084466170861
1.101606592160776
1.105606084636535
1.093768209535672
1.071308261539355
1.070416348523943
1.097406394215415
1.088605935944499
1.100461993827863
1.082033131260028
1.06448493770717
1.092730082179432
1.065511495421847
1.227635638831953
1.220505785259203
1.203941122595019
1.146810224280873
1.181757383396707
1.127987134083758
1.137699108128356
1.159562300063785
1.153688858406478
1.108824313064138
1.094406690054763
1.122464868767207
1.132152416534816
1.000916124279692
1.000861682412727
1.000945639702963
1.000775865969121
1.000769209109614
1.000784878757114
1.000790521860843
1.0016510957928
1.001765791525725
1.001799779865674
1.001596547283049
1.001815343532597
1.00160918608856
1.001637883499611
1.001078091634898
1.000982102095759
1.000992539600746
1.001053168443407
1.000997827572026
1.001059183585681
1.001071984083513
1.043054431154524
1.029651080696348
1.025858404175001
1.032997273259868
1.02585943854613
1.025605134138553
1.033779476596564
1.013720043543003
1.018904322284715
1.012641068640901
1.013679381782459
1.018565034814107
1.012549577181688
1.013933985484733
1.007075239169417
1.008859413330215
1.006605238059196
1.007123456165248
1.008752955472226
1.007125629880218
1.006560593160743
1.003488401042718
1.00305529058656
1.002968480817491
1.003291388274055
1.003093572531213
1.003334675581969
1.003441697627923
1.00246800642946
1.002725236334619
1.00235858618787
1.002654258891862
1.00275682881829
1.00238330361172
1.002441767250136
1.195825864301169
1.193871855347517
1.221519821926744
1.219393061227638
1.090344739819632
1.070259768144624
1.09553024264184
1.072641893226041
1.069742166767514
1.091045235921304
1.094793060683079
1.191609413650816
1.189029562515203
1.214101126876879
1.216924341921621
1.081979955723939
1.074098113153946
1.066649765995028
1.066244557513994
1.063651832826775
1.085961723975376
1.072486141669156
1.201462797104431
1.201212773399247
1.227343909887735
1.227609095814419
1.318592945457221
1.324174200334767
1.318908505308705
1.323850783250022
1.311410253440184
1.313900883013501
1.308748781200693
1.316590345195748
1.121486432287758
1.122695143488612
1.112340960238621
1.133437931211772
1.120310903145928
1.121492039430546
1.132131899603318
1.173306123355994
1.175541346288267
1.155623830777769
1.157113854931855
1.155423304427579
1.173526578516769
1.175318637833297
1.115452861015608
1.126118835940574
1.126288011307054
1.137125174496879
1.125004286756723
1.124838694528719
1.137306771407643
1.168799570209736
1.169142356616388
1.149896974163537
1.152997964499843
1.151346545065623
1.167190005522975
1.170768114288478
1.302060175593886
1.310758864210533
1.305640349697055
1.30713883023452
1.166384820561892
1.188896464243841
1.171044428244134
1.194152552382057
1.268693070180056
1.273336527181372
1.27588563465302
1.280633054855576
1.146634249198103
1.144939378667025
1.130128802930186
1.148674864698197
1.134869099690019
1.133413795334079
1.150417348889406
1.104640844764608
1.114632209389902
1.105475820673777
1.108075671814545
1.099184425129309
1.117499489777253
1.107190394751578
1.120100615760065
1.108579720649879
1.118537018011657
1.128936243633086
1.118956601507749
1.117428325836994
1.130631932526
1.163222687658091
1.167266251383155
1.147936581561497
1.148228030907636
1.146335851113847
1.165332985283936
1.165133738469054
1.001660004230127
1.001775800068123
1.001831133719159
1.001621994232347
1.001825845362663
1.001664488041997
1.001617706328676
1.001679574443045
1.00183300998143
1.001866091083027
1.001680117314668
1.001849073185452
1.001693920473624
1.001665970134143
1.001688748314728
1.001865372874315
1.001877103610427
1.001707914776469
1.001859913561227
1.001693366111958
1.001703229000949
1.001514477326091
1.001482224023494
1.001389524178585
1.001355641288583
1.001386259945996
1.001518295922367
1.001478558936451
1.001538846133686
1.001555079488384
1.001410347323094
1.001417421284915
1.001407002794791
1.001542769214089
1.001551103570741
1.001506887061908
1.001460456674871
1.001349385464645
1.001370127999266
1.001379769014551
1.001471272840433
1.001495621492053
1.001531049009943
1.001531476637077
1.001410692568293
1.001390480582854
1.001400353564515
1.001543201876756
1.001519478098808
1.001082193800061
1.000985264343186
1.001003270448212
1.001065128640822
1.00100139800638
1.001084275179073
1.001063115664393
1.001091060376091
1.001003983297166
1.001014954466452
1.001091460426174
1.001009193221293
1.001097597414675
1.00108493885245
1.001095222136076
1.001014672462051
1.001018560446327
1.001103899030263
1.001012806284588
1.001097333128608
1.001101778547533
1.001172104452062
1.00115206341343
1.001275641972854
1.001246676323868
1.001272843733451
1.001174509085361
1.00114972979627
1.001187262983816
1.001197338606163
1.001293413134194
1.001299441028859
1.001290554706677
1.00118971152873
1.001194869837509
1.001167328400455
1.001138160499372
1.001241289990801
1.00125900677941
1.001267278790538
1.001145096394938
1.001160222663965
1.001182404354241
1.001182723087566
1.001293701530175
1.001276436019532
1.001284872869531
1.001189973163278
1.0011752029557
1.055433318206147
1.067275716462911
1.064999130020433
1.035580094468639
1.040830752176577
1.03645463057067
1.039806725650152
1.029090317798658
1.019657996710832
1.021060934470545
1.016316492057026
1.020662670849762
1.01953895446257
1.029739908648667
1.03114586605909
1.035322866035966
1.022226155564541
1.023599603477418
1.021795089723293
1.031866748903705
1.034485756648861
1.03434995180028
1.026964779606975
1.027877937219364
1.032351602105509
1.02353340010445
1.024629601014174
1.030778865143144
1.048574779647181
1.057805424012116
1.064355002554128
1.035010180098048
1.040835196242213
1.039136210476749
1.039247791987248
1.028660957298861
1.017240870073775
1.020221321488646
1.018069819391338
1.020402094643162
1.018843976947099
1.022178215679544
1.030677893966997
1.023282843141874
1.027829007051444
1.023638504626659
1.02151310443513
1.033938744978127
1.026603716329296
1.014276280662671
1.019870326857437
1.015398656621971
1.0209959751825
1.019504879710119
1.014503859427968
1.015149426571224
1.012476261030712
1.009816277299588
1.009650592908018
1.008337255242874
1.009529100647966
1.009774989702436
1.012660967496305
1.012948306413553
1.013900452997552
1.009953896315184
1.01028794921652
1.009826355297102
1.013144095136181
1.013687141730943
1.013579866199824
1.014465961872691
1.014873099585916
1.011821949824521
1.018343009188688
1.012192729833099
1.013543119165738
1.0141271916176
1.020729348721296
1.018895289892871
1.015646523005332
1.01926576587081
1.014986193573212
1.015328685775218
1.01235518044257
1.008147811863431
1.009852553673101
1.008766771517875
1.009449295420724
1.009533036493567
1.01036721128383
1.012819978023889
1.010198041671224
1.011765204840087
1.010475315475416
1.009742607266383
1.013547362430254
1.011472218692569
1.007438416673783
1.009121806389986
1.007682986953066
1.009408536872518
1.009010392355517
1.007492947920561
1.007626287608863
1.006039731363611
1.00568259086672
1.005258994083747
1.00492183027061
1.005228268513893
1.006078644971432
1.005647802191951
1.00631499118419
1.006500285724965
1.005475234679399
1.005552467300458
1.005442396324947
1.006356834013834
1.006456922481463
1.006975913497955
1.007547000536913
1.007445128388419
1.006344102413409
1.008683068423295
1.006472390868509
1.006830590820554
1.007331055064376
1.009330444792701
1.008801520652246
1.007351798018521
1.008937308995606
1.007514709777203
1.007174170493947
1.005963097736377
1.004867138473284
1.005479895466548
1.005078969283577
1.005167692446435
1.005579373129658
1.005851165717094
1.006232571073306
1.005485563198433
1.006246621248867
1.005282809082483
1.005377650003169
1.006371510458226
1.006112063541811
1.003594505135779
1.003139574877762
1.003223466904093
1.003598284295537
1.00317965817656
1.003648613069801
1.003545408751304
1.003993130140896
1.004579869198005
1.003817679615484
1.004313002614274
1.004555354532198
1.004012869761695
1.003799531164618
1.004127246052124
1.00474996198632
1.004217246877862
1.004810313370412
1.00472391672271
1.004148106208774
1.004195808040846
1.003520105224107
1.002992672197504
1.003378884133815
1.003132635826748
1.003119526954781
1.00353613091907
1.00336404406361
1.0036278458921
1.003251282510128
1.003700081060372
1.003220574591822
1.00320684219874
1.003644702343653
1.003682796757914
1.003954115109934
1.003710829972961
1.004268863873438
1.004435899036505
1.004506957229839
1.00376364769271
1.003896726870929
1.004086025124774
1.004091176264132
1.004757341627398
1.004597046334595
1.00467250500346
1.004153447763602
1.004025416845695
1.002526007221827
1.00279426689171
1.002527583940417
1.002862989366645
1.002827230320901
1.002555415181501
1.002498714602689
1.002218976712193
1.002127820927659
1.001944293221346
1.001984768821882
1.002003192315327
1.002148562879369
1.002197052097453
1.002233795345376
1.001956106835537
1.002021902157647
1.002169641942432
1.002015633840683
1.00224126537073
1.002162578140376
1.002267089581146
1.002268285298287
1.002024297455419
1.002063655432158
1.002043357978345
1.002291442837749
1.002244348653133
1.002282462822083
1.002062718481725
1.002076749421623
1.002314992756771
1.002056231749404
1.002290213302814
1.002307099144978
1.002485757840249
1.00267430915109
1.002408449804833
1.002789022108707
1.002778223744755
1.002494711529932
1.002400019929515
1.002544475337508
1.002885797134468
1.002583751663828
1.002860830993239
1.002849559409209
1.002553791753032
1.002574249782272
1.197479302680841
1.198838732656118
1.223315240372474
1.2247878888052
1.24577155113305
1.265296996429268
1.24349079816863
1.267710343946959
1.247693305479282
1.271400321153977
1.24926640187573
1.269740822051558
1.220819738348356
1.240423120109958
1.198923534361403
1.212558157085772
1.222258098059976
1.238906441123258
1.197611868182491
1.175917862094088
1.159926671398208
1.161545352914481
1.199056741639986
1.177641689123131
1.197121647805815
1.179399014956046
1.162921145452072
1.164057937947144
1.180452420301672
1.200694435470149
1.18211899483859
1.202041702684897
1.180889635596815
1.219068194962605
1.234864561182782
1.210877166482402
1.194137888063565
1.216994862474654
1.237056939116095
1.196018945057258
1.081473177890177
1.10388837352282
1.07957525080416
1.123025532192432
1.126086049158574
1.095130646781191
1.092882944848787
1.075589049933325
1.060414121378986
1.059981892444541
1.087485093573874
1.068369297145084
1.067867998619616
1.08816186186552
1.133106505354195
1.140383138688601
1.132060642529506
1.098946057584238
1.104932019035457
1.099721009010472
1.104115493171254
1.089877641386835
1.072280709117805
1.067855614056833
1.0920873235249
1.069397781636777
1.087776680448368
1.09430129739872
1.059694727282257
1.058411867304543
1.073484592584297
1.08703395273493
1.066041964001554
1.06753453786725
1.085006066109656
1.082531034115402
1.08189611627855
1.105583623967803
1.127768361578092
1.126760997257599
1.0956298044329
1.096377895447489
1.128177082728545
1.139641523852905
1.131359552430798
1.098428800816108
1.101110543128951
1.096097878588807
1.103570241799729
1.237797058855552
1.262485408388297
1.240837917306211
1.259256755246296
1.182878882413659
1.210909339441603
1.207333851876929
1.234349978086193
1.251457264679479
1.255589019894176
1.230476426418155
1.208731412361333
1.222386227674406
1.200982810633423
1.183557890711318
1.226095318173706
1.205250779954245
1.186680691142798
1.171522632904664
1.158060831561328
1.15594337012503
1.192325048749622
1.175611444821356
1.194880889813269
1.173301449819619
1.211839367229157
1.2323169406135
1.20395400434132
1.1919606681269
1.214589310826929
1.229399423823885
1.18947821395649
1.165970304611802
1.150936801242027
1.153569953419075
1.189443890230382
1.167813721909158
1.186226820137244
1.17070455807206
1.114972489441318
1.126688889065984
1.119176242590723
1.089633694786115
1.09641656412055
1.09426694277217
1.094729239433378
1.063488435887835
1.05492857087624
1.052122268125901
1.079421438343428
1.056784948664028
1.061976918160901
1.066365046115403
1.092997200000922
1.093147467965927
1.074376240809587
1.07583408832475
1.11439819442299
1.086663246322099
1.085174227505256
1.098220601032312
1.075611600019476
1.078735276520832
1.12165546364886
1.116479592474877
1.088149237255512
1.09188420705054
1.083362863983366
1.06729293167993
1.067174611552663
1.091103687285366
1.06464870224527
1.086844274030272
1.087425306163626
1.057846396017182
1.055752336545305
1.072724152929901
1.080752388709319
1.065383151927055
1.062940473689492
1.084106752857174
1.129010975115711
1.126750624406154
1.121351741536227
1.091179946001907
1.100015281574501
1.095061272729074
1.095906867535602
1.200698475314879
1.199909794555546
1.226793537225671
1.225944865279231
1.251980896406564
1.274537121655976
1.27425036273605
1.252257985458649
1.251400022710486
1.27269815432278
1.250499142692155
1.273643709383686
1.224224187819942
1.241615294891783
1.199959907226657
1.215837609351065
1.223390513785753
1.242491147604306
1.200726779494519
1.182643508697334
1.166070720900151
1.166289373981553
1.204402515043357
1.184522410324976
1.184288057788306
1.204653715870471
1.164959295558017
1.18143660083927
1.165628842655571
1.203889021271825
1.183091913165544
1.203104546702862
1.183813147752326
1.224767997887657
1.243336818384748
1.216366339341714
1.201478621588756
1.243060830694265
1.201230659817158
1.225032640807551
1.30826554388443
1.293572256838602
1.293276329220671
1.308571265733247
1.317927995471188
1.322127913700187
1.316891660015064
1.323176057553894
1.307616610935221
1.291663922804348
1.292647202172208
1.306602626478265
1.270231409393146
1.257114561909106
1.228634339653897
1.237797659272581
1.258025606918176
1.269292430496938
1.238661640617195
1.279256832361668
1.283850758066841
1.246416993609903
1.249647402893672
1.246132691460205
1.279559581588763
1.283542582715514
1.270841214080521
1.258903199490055
1.229183866395582
1.239505651420877
1.258617239878936
1.239227810089254
1.271136208939101
1.278633339973557
1.281942205262691
1.24467289563087
1.249062701733202
1.27767459710937
1.245554532417344
1.282911238239389
1.301234193236217
1.283939152067159
1.286461369022013
1.298628772955897
1.313644792358232
1.320689423897706
1.315467881244819
1.318847843012589
1.303422518224276
1.290311987464861
1.28858122210525
1.305208255591036
1.266381744093394
1.255872977126874
1.225219182236698
1.236627027445384
1.254291831513725
1.268012464011043
1.235141629992529
1.272670686356775
1.274446933936896
1.2379289453242
1.243569993190119
1.240116635407397
1.270255278631127
1.276887609585507
1.264390111854751
1.250071689180862
1.223465820773791
1.231190465765903
1.252361842377807
1.233332837776408
1.262025172874174
1.274703949702104
1.280622682408092
1.243478561654275
1.245434984980913
1.276368282062923
1.241962887537892
1.278941631322202
1.159878712874757
1.178654460458089
1.171421760258443
1.189892967366553
1.177460997864407
1.160962696401783
1.170280605753982
1.134238718867511
1.145658712397882
1.147128604110953
1.14690460095827
1.160536477774917
1.162129960963092
1.14546135919895
1.113277743100376
1.114056675123891
1.124585176125427
1.134551948466706
1.123339059836493
1.122501047854169
1.135475858445508
1.143284710055517
1.128586599673922
1.137188018345793
1.150504533527737
1.129844664253384
1.151972710132517
1.141891657688018
1.14838027495086
1.149416492630186
1.136319229377622
1.148133589159187
1.164603774551683
1.16348437249102
1.1491512032436
1.144471470848919
1.154256440699349
1.131808920693038
1.138317204676919
1.130918189688888
1.145454633414228
1.15322221023973
1.158567952431977
1.188368008892231
1.174311095846751
1.167273248071193
1.176014966487632
1.168899354589088
1.157026548675258
1.188763634662494
1.181158359345271
1.203497293728821
1.211001080901253
1.211791923585237
1.181858675554771
1.188042520345931
1.193980941473819
1.196634189189122
1.218279450681395
1.22091707721358
1.218016257577916
1.194222464988126
1.196390023105595
1.169342434189716
1.152287627040303
1.147212138226624
1.163758329501701
1.152090880281915
1.163548297282596
1.169558614330582
1.172863219806059
1.156707678167513
1.154414748813408
1.174196548432772
1.155020965965652
1.172194826613093
1.17487139672339
1.168907987431902
1.162489188184864
1.146828359480914
1.151101209401434
1.151696071856572
1.163126174978327
1.168252323141178
1.189240361513081
1.204003198546346
1.212570618358313
1.182551520195995
1.212312980385272
1.1823216974153
1.189477031252347
1.193494731552955
1.216677875789261
1.22037976426589
1.195156340485786
1.217484563224603
1.192759397006082
1.195898897544581
1.162464143234657
1.179600027783241
1.172327054009815
1.192883300676138
1.180302169242667
1.161823400393405
1.173000439394861
1.138186676942009
1.151258988135738
1.151460600109725
1.150962377122172
1.166805072871729
1.166588647515169
1.151161008424756
1.125779492887781
1.114678358451553
1.125268707033428
1.136760655119724
1.124007225611083
1.124506708298587
1.136211493594915
1.147206911157518
1.13357628778514
1.140924626762876
1.156299565909448
1.133400730006389
1.156097420091398
1.147399542524418
1.150239873195968
1.150853068232986
1.137069959796707
1.150562947008966
1.165491851005602
1.166152196245806
1.14996012015587
1.146820006632432
1.155078490189374
1.132518526684896
1.140555155810176
1.13304860985696
1.146236690305432
1.155691228076532
1.162888278600642
1.193369925663865
1.180995046588658
1.173666992184889
1.180765595894359
1.1734458487034
1.163099001692701
1.185848027306173
1.18021635313028
1.200384079895144
1.209933939550334
1.208584067682985
1.179028169571995
1.187072288133757
1.189007528333282
1.189563780505495
1.210561212414803
1.215384960541862
1.21253908578781
1.187222132075262
1.191367389404736
1.164922880211094
1.146670395306139
1.143326907002954
1.157726822967814
1.148091546351103
1.159256846377564
1.163345431057495
1.170167083002816
1.15424388754718
1.153602170477429
1.173290459631365
1.152580465276917
1.1712974013676
1.172149135416884
1.166263587714522
1.161634218352501
1.144501903122463
1.150303938274242
1.149301671599165
1.160557971140932
1.167372065512374
1.184364351237397
1.198794232427531
1.20500718675393
1.175893128666802
1.206944502086546
1.17758893711552
1.182615115798165
1.190521286288534
1.215589393216728
1.217075026980031
1.194157271613411
1.214212278123204
1.191769988261425
1.192896280902069
1.29208659128684
1.280997258237454
1.277614316428562
1.295587369319291
1.297978756668
1.298338353275968
1.293361851868196
1.303010426278452
1.288098657059901
1.269420615322188
1.273765087817623
1.283591467976157
1.252521499392488
1.236988872502813
1.213113744518622
1.21901235409364
1.240886393835056
1.248479538841042
1.222630111024832
1.264209453341182
1.271602802005117
1.23538685443826
1.235846674916112
1.26744140521491
1.232475209809141
1.268335035285541
1.256110793547597
1.247407338577202
1.216228096200638
1.228702333153465
1.244352014747704
1.259271552072716
1.225854233220677
1.260536604065435
1.26043129760266
1.225472679217466
1.232510827820775
1.256396995688118
1.229176811654899
1.264620108178322
1.229711959500702
1.2160753162342
1.235992387296782
1.169813987250663
1.13778394445302
1.15320782664855
1.155379738682984
1.141461488238499
1.174462624954631
1.157320842737763
1.203104084749442
1.180576180711564
1.167630898081395
1.192422882016062
1.185437662811877
1.208630409862208
1.172142233134782
1.175345859465308
1.179289134531603
1.198969908194694
1.203359103538649
1.221361834505466
1.246833950145371
1.226154617738205
1.241689368649155
1.197110913610808
1.189898674607796
1.21825249979719
1.180099745447204
1.201382280313197
1.213673866105625
1.176297019624356
1.162745163747365
1.148041219270159
1.144882255297032
1.17874451126897
1.164622525233831
1.182663477041606
1.161125868658908
1.259585602178806
1.246396483359948
1.266571002704412
1.253075347138718
1.238311242720783
1.206186576493769
1.209223259485872
1.240880489231696
1.214833717914578
1.211719523434144
1.244712998763153
1.216595645077917
1.191580662158834
1.200228981540877
1.233363436525672
1.196734226200337
1.222464066690981
1.205608375778332
1.282361045500554
1.293082330251953
1.288170486748986
1.287197161669552
1.272869862945893
1.264548416787131
1.27852867673154
1.259112775700143
1.238929503888773
1.201449884215277
1.23263594320644
1.214982222267656
1.243958361339137
1.227802763775973
1.21052048692237
1.246600644606026
1.219946586179621
1.255738922880633
1.221342458632965
1.251761991593513
1.216765046702071
1.250510795478984
1.162169395098013
1.182354675654323
1.184836856144511
1.166423477739001
1.189753084187872
1.187204756290773
1.168523506101534
1.127341457153277
1.136735240644415
1.123265161081088
1.145245594415177
1.126353749090554
1.130546862781915
1.140238589209005
1.170391685087283
1.177480487378723
1.152297493632064
1.162294777250224
1.174918700283111
1.182199710554176
1.156277442150587
1.166116985082088
1.1790826389746
1.163331864004574
1.190487405744469
1.186532504544851
1.159955074339118
1.1696213881116
1.152132680798844
1.137957871928141
1.13928405208666
1.157135697577323
1.136466316826662
1.155312951040394
1.153917672732143
1.148619384914406
1.129229352093582
1.146484699950232
1.136281353124084
1.133527739231496
1.143488915324372
1.15172499294174
1.170344051634587
1.194258707028849
1.195707656048016
1.17612879493982
1.191652359937292
1.173935182045404
1.172493823184296
1.115073496410512
1.125790192796581
1.138679399567634
1.117988155798999
1.129062124349015
1.129136903138634
1.142321794243935
1.123045679468874
1.130485573488569
1.118019678632846
1.126156752894717
1.120957276621749
1.114510928868127
1.133810550979352
1.161343976211015
1.150654516267128
1.144803573177489
1.139431577289546
1.165622627559443
1.154635543423254
1.148572893088216
1.142697208265689
1.169567912596175
1.16170225185769
1.155274723400277
1.158318038182228
1.152063398011939
1.145709218366871
1.10136559846601
1.103399580173546
1.112781268502572
1.120178390742004
1.111798980918487
1.109578261343097
1.122663750725983
1.134942152954398
1.132114757536207
1.123246175799853
1.132145661431031
1.148823637430761
1.145704184638212
1.134929317974463
1.129055206686406
1.123696595042385
1.139754499027718
1.119476023119548
1.117086332886466
1.136901083524214
1.131737119946779
1.150975189522368
1.179450198821548
1.164791324686622
1.158209152267226
1.167590317167593
1.14846784220887
1.16087077154395
1.129643298571226
1.143967696606925
1.142052695609384
1.141919875338022
1.158699445291591
1.156614128673709
1.143800808590146
1.11679543261197
1.105281853698274
1.11487635784547
1.127043390529822
1.113848863499072
1.115725673889585
1.124952534431067
1.13847528007339
1.127142246881521
1.148813987828553
1.132619065199949
1.125509992368494
1.140289465853094
1.14689723945659
1.153234625441469
1.182118476069637
1.172343424861829
1.165396971098041
1.17010543576254
1.155250261808094
1.163264785825589
1.137541241215754
1.139911167104041
1.125579321807916
1.139815708639375
1.151680146797558
1.154275809305178
1.137485990606146
1.136446457325841
1.142370502367182
1.121677187783638
1.130694635965233
1.123688548451745
1.134200844345616
1.144750536889074
1.175700882955096
1.189470175052976
1.166411931663964
1.194075448351978
1.197308939758967
1.172813603926201
1.16920111476859
1.182805654499118
1.187477704326226
1.20826865156884
1.20842278099603
1.185157609724457
1.205650007155273
1.185100549729404
1.160853096548704
1.145794973888524
1.141866956452787
1.160074420160183
1.144216641181004
1.158218310963863
1.162738529685574
1.159459954442317
1.145034808943211
1.155963480408841
1.138564846344032
1.143181279672452
1.161526240342674
1.153962138940315
1.178291336574034
1.192264813483336
1.202762753466994
1.173934504406756
1.180593345539492
1.200200567934056
1.171706230882037
1.15714109136866
1.149226870099717
1.138807198134696
1.136555356416567
1.141106412606954
1.15456434692831
1.151718084638847
1.18015735860202
1.199383202542641
1.205432310114153
1.179435625097043
1.202692683933587
1.177203538476644
1.182423053447233
1.15564253312159
1.157012526960322
1.092531218767792
1.092567069455039
1.086589348525656
1.159708334446835
1.160364019042003
1.093624116938475
1.093924931272666
1.112267844469913
1.119688505843627
1.121939938430789
1.084616903538811
1.071997326089845
1.07309556811595
1.08295726511581
1.105179334462089
1.124002248348347
1.124343223801092
1.082072947975373
1.078252095931946
1.073497433296666
1.086547405841238
1.075973921741438
1.09545755607606
1.074219168012262
1.058023566190982
1.064331754644813
1.069115296029305
1.056745245326522
1.070772647932363
1.057149146408949
1.049009376619004
1.045898823894485
1.056745278636874
1.051739326321499
1.052044067267981
1.045693197878026
1.05647709787625
1.055279711786656
1.045131605346311
1.068821675301577
1.051496601252003
1.050834076546393
1.076953988752954
1.076365577950771
1.097017108266844
1.058526811554868
1.066026018931499
1.069484887370312
1.058743496746603
1.103704137734582
1.100304108993597
1.108709807048373
1.075267930541998
1.075831342451492
1.068704110978799
1.080445108455183
1.113153101506443
1.139135531209176
1.082666096300709
1.080773089858069
1.094622659308246
1.152175994017898
1.091234337907846
1.160791062348251
1.147717988387959
1.085861286014479
1.085489416702245
1.097747698996252
1.118297614461071
1.114984892632816
1.074782165452027
1.074355009033897
1.081945500021601
1.067635729027461
1.085668470080519
1.069434585452846
1.070556832722069
1.052467908178306
1.067133443394599
1.05868675447734
1.059291752608597
1.056786174689114
1.044188703371963
1.052034559246116
1.049425060425838
1.040378421123481
1.049561432890058
1.049203722922615
1.090272702558775
1.070568642973873
1.073443982570946
1.054873207092966
1.065941502609015
1.056184725622741
1.064096713075375
1.054752068599965
1.047076511048555
1.046058643170277
1.052800505444895
1.068117978214303
1.048835070320617
1.052978899820651
1.260731062359822
1.265252463758877
1.251950607822794
1.256328343364327
1.251867087851362
1.239037911595533
1.243373371016407
1.230967368315379
1.231273176636877
1.200150598136963
1.203098264355352
1.220056328232972
1.196448451040712
1.193602754806343
1.223572229576116
1.21017675378064
1.185979926870567
1.194369321916689