/*--------------------------------*- C++ -*----------------------------------*\
  =========                 |
  \\      /  F ield         | OpenFOAM: The Open Source CFD Toolbox
   \\    /   O peration     | Website:  https://openfoam.org
    \\  /    A nd           | Version:  7
     \\/     M anipulation  |
\*---------------------------------------------------------------------------*/
FoamFile
{
    version     2.0;
    format      ascii;
    class       volScalarField;
    location    "0";
    object      p;
}
// * * * * * * * * * * * * * * * * * * * * * * * * * * * * * * * * * * * * * //

dimensions      [0 2 -2 0 0 0 0];

internalField   nonuniform List<scalar> 
12676
(
-0.001159813503635567
-0.0008917499807383681
-0.0007313176448676004
-0.0006175735681697073
-0.0005349885707053006
-0.0004744025329131383
-0.0004300080011665512
-0.0003979875590973021
-0.0003758116141806751
-0.0003618394460545948
-0.000355084983822011
-0.001529644108973516
-0.002931288999761788
-0.001653933138540541
-0.05162842754514859
-0.02024282745860137
-0.0116956757836271
-0.004808329674703897
-0.004325661343044195
-0.1037268192558028
-0.08853850392229005
-0.1233212197083011
-0.1898131349296602
-0.1283225280952053
-0.1825459803108471
-0.1583106519671224
-0.1076156014714152
-0.121906747067383
-0.180453103064022
-0.002983703589848492
-0.003191248366931644
-0.003251522965746454
-0.002293893087210421
-0.002459260985454985
-0.002261001731190197
-0.002422506793129231
-0.001674409439711324
-0.00175434169344417
-0.001772757524431951
-0.002113138106334463
-0.002255558914616918
-0.002084773940880792
-0.002224226759095664
-0.07525158611340838
-0.02164148190171752
-0.03844364303003357
-0.04837898294542696
-0.07205723810101781
-0.02008846120263889
-0.03483449437627287
-0.03443190330023056
-0.0125108338965216
-0.01738280867422939
-0.0188415674285267
-0.03136433156506863
-0.01185041891310736
-0.01629936863011989
-0.01593842254414175
-0.00789235309845422
-0.009497521281507989
-0.01109108193551052
-0.01499210858520937
-0.007622040443265744
-0.0091381915890667
-0.005452022774109992
-0.00697370085933229
-0.00824716905077935
-0.00493207375312096
-0.005603533064563529
-0.006753357552372727
-0.007961197175854669
-0.004855706988166692
-0.003215137125281566
-0.003276817136594288
-0.003523035526444345
-0.0035946966523456
-0.004428879226905516
-0.00498016450955545
-0.2167535712135041
-0.161326295476427
-0.1627775676193723
-0.2112966227799087
-0.1164702030259268
-0.0955470551497526
-0.1755814759850162
-0.1000553968899809
-0.09430827976804307
-0.1211298080529318
-0.1688698452760106
-0.1595410543119575
-0.1995614987098492
-0.1577038895264402
-0.2088473795499077
-0.1531443036435126
-0.1467300402269124
-0.08618075767809003
-0.1018905504593375
-0.1151543975805244
-0.09901877019305445
-0.08757437848154066
-0.1669435674111407
-0.2179516142824417
-0.166383102754342
-0.165669892673412
-0.2197256787575939
-0.2330432490334597
-0.258921921369264
-0.2349159313893776
-0.2568914450309548
-0.2317774417308648
-0.2492425572992595
-0.2260000541189399
-0.2555197898249371
-0.202368159136944
-0.137710454779071
-0.1328997806151808
-0.1595786239769393
-0.1403577178099971
-0.1637016585603937
-0.1972518775883374
-0.2168385354896745
-0.2398051376960414
-0.1752520415694815
-0.188266167476866
-0.1738141016771546
-0.2186043629330435
-0.2378953280586027
-0.2034947257003665
-0.1432177111393299
-0.1277840609041294
-0.1659840330151729
-0.1428094816442324
-0.1646159829179147
-0.2051695925972161
-0.2156497656200216
-0.2307445192694671
-0.1685094340863888
-0.1872308612051131
-0.1728524161244603
-0.2102406728964154
-0.2366096092022502
-0.2135058020139596
-0.2464079706032738
-0.2234005069106663
-0.2355575169045846
-0.1888238919622202
-0.1380150702040448
-0.1780667146549819
-0.1958090786562689
-0.1446538087766893
-0.2282528723108515
-0.2206118338788215
-0.2094888977640753
-0.2311236361115828
-0.1845776516383306
-0.1639795899946218
-0.1767025144861188
-0.1948806804122704
-0.1693961107824588
-0.1563998809824874
-0.2139381056595368
-0.1341528383982226
-0.1294726446728733
-0.1474729387914333
-0.1828149503336006
-0.118713687850654
-0.1251763697146992
-0.1481353236373165
-0.1863018201470034
-0.136089259429375
-0.1185796925607852
-0.1577445492838891
-0.1949608950592785
-0.1322691355031829
-0.1508743779984282
-0.1986042052960618
-0.2281034421871483
-0.1725636799428341
-0.166574132087936
-0.2078129687117611
-0.1593059525033453
-0.2180337584205367
-0.1091085027000017
-0.1135416654581456
-0.1038093616822583
-0.08717641758263321
-0.08605762788231637
-0.1079540378917104
-0.09547263665050722
-0.1078626511520803
-0.09107134958137006
-0.07876661900504449
-0.1026454911730348
-0.08001093386574262
-0.2216062256171442
-0.2142340423257179
-0.1835809079491883
-0.1344482174939332
-0.1731560488349078
-0.1541091898794449
-0.1595665462427431
-0.1794590043803201
-0.1718459730811322
-0.1261962084037081
-0.1050321478708953
-0.1306974077503664
-0.1435817169587079
-0.001553726910395743
-0.001515083228793975
-0.001646398012784448
-0.001329746525842896
-0.001323474289257078
-0.001368140797773497
-0.00137354512019695
-0.002812760912093865
-0.002957416859529762
-0.003058806879044866
-0.002680606215985056
-0.003086833695964423
-0.002702913337464617
-0.002788948462797626
-0.001847991454878678
-0.001663707459846191
-0.001702495948578267
-0.001784224243386054
-0.001712557210462846
-0.001794945663894911
-0.001836712105064634
-0.05140141085388821
-0.02745530064305247
-0.02698884902037849
-0.04621837537878992
-0.02871894234714208
-0.02845731281852979
-0.04737483747544188
-0.02142777900174019
-0.02870720465708764
-0.01765236347437588
-0.01876940281667488
-0.02817475377844596
-0.01752599372639422
-0.02177456079969538
-0.01141320522683061
-0.01430333923337855
-0.01024239535950508
-0.01087799015526912
-0.01412514030519177
-0.01149716092752363
-0.01017220249177386
-0.005829524972117521
-0.005121683762607888
-0.004869742663025606
-0.005364391930300413
-0.005189702517075241
-0.005438330880242016
-0.005746903566803315
-0.00416686963240707
-0.004584193586473532
-0.003905191441253699
-0.004376937454424927
-0.004640540942924636
-0.003948217930898478
-0.004119917288967908
-0.1681138478798838
-0.1663421657479502
-0.1954724039103365
-0.1934699043242063
-0.1204744761156077
-0.09821778912652805
-0.129298222548748
-0.1029352301387956
-0.09747314872730826
-0.1214378247775986
-0.1282693982144792
-0.1643200773836146
-0.1620513379927972
-0.1885905919291228
-0.1911758479898658
-0.1091294662698406
-0.1017405352620766
-0.09227284061076665
-0.09368085292623576
-0.08879109813410889
-0.116102999178717
-0.09883374825722108
-0.1733886106167247
-0.1731448339753505
-0.201118019623337
-0.2013882360100183
-0.2946606745163876
-0.3002870706496922
-0.2950210674090123
-0.2999197395952111
-0.2870323682721281
-0.2893936067503967
-0.2842858111583015
-0.2921811786767041
-0.1304210587370994
-0.1317537626572992
-0.1245648507586524
-0.1469575688707587
-0.1366875046464439
-0.1380657557672908
-0.1454761992505543
-0.2021491691748327
-0.2052390573992946
-0.1873300036425735
-0.1895559497365274
-0.1870759240482185
-0.2024224285104297
-0.2049623453188864
-0.1281430030476183
-0.1355826027216612
-0.135774343150828
-0.1511952709326082
-0.1422135887828193
-0.1420160824516919
-0.151406626019003
-0.196624590565217
-0.1973917764624685
-0.1801518980113996
-0.1843722459327379
-0.1819552534294102
-0.1946733415705835
-0.1993683672268029
-0.2774965974191927
-0.2861706010928351
-0.2811115411689781
-0.2824984076098101
-0.143696370072723
-0.1671201157980966
-0.1472595505368076
-0.1713790110166807
-0.2455479843709639
-0.2499542101952932
-0.2522007903629015
-0.2567453276298035
-0.1709088628115252
-0.1685766765582556
-0.1562584781919679
-0.1728607113639273
-0.162264620292319
-0.1601519581181182
-0.1752623075019261
-0.1190435783700558
-0.1264224157067573
-0.1135448489905099
-0.1161985463916347
-0.1100815888897021
-0.1294560910308951
-0.1218435272975223
-0.1289044118196614
-0.1203248490831986
-0.1272072629692574
-0.1418904643062867
-0.1351166471692917
-0.13335568545093
-0.143786417557953
-0.1899060235096932
-0.1951233891072048
-0.1780922986375373
-0.1780857679021847
-0.1757557700468246
-0.1924346290419701
-0.1925604897790812
-0.002828757566589556
-0.002974978561867087
-0.003115055353021699
-0.002725322331739849
-0.003105681758604366
-0.002836701453693947
-0.002717891530636022
-0.002888172128668903
-0.003146482930292668
-0.00322126921688708
-0.002901266340045925
-0.003175828040349605
-0.002926652799641966
-0.002863318304850879
-0.002904873312766683
-0.003205393139504426
-0.003241468193203614
-0.002952194649537451
-0.003195569211100739
-0.002913172137259804
-0.002943714297667166
-0.002584920755635279
-0.002496769640123224
-0.002375159600103505
-0.00228844168909676
-0.002369387711324544
-0.002591679443623552
-0.002490417313348327
-0.002649719953939118
-0.002689955203917736
-0.002430849691069189
-0.002453162147860182
-0.002424860296566484
-0.002656758139146851
-0.002682774688243995
-0.002571291445524843
-0.002458483746338478
-0.002277427165084213
-0.002340356649127533
-0.002357733485695792
-0.002477595686303748
-0.002550983698543337
-0.002635535041648519
-0.002646756895790437
-0.002440855398898219
-0.002394748840744609
-0.002412771937240528
-0.002668306839612278
-0.002614404362043259
-0.001855560044509707
-0.001670805220987002
-0.001722586430656946
-0.001806002437578429
-0.00171928236924163
-0.001859297903602226
-0.001802312765364898
-0.001884794090522952
-0.001736439489410733
-0.001763620894987466
-0.001892419708103367
-0.00174628476494201
-0.00190373623012157
-0.001873399412444054
-0.001892385311475581
-0.00175580672273783
-0.001769761175648584
-0.001914988987146282
-0.001752696554278224
-0.001896116896718529
-0.001911279908349118
-0.002007803601465715
-0.00195141679696756
-0.002183093311346052
-0.002108434924433797
-0.002178142658096598
-0.00201207928075739
-0.001947313367613445
-0.002049418806065339
-0.002075131350793489
-0.002231063637139938
-0.002250369196582544
-0.002225951789621431
-0.002053790945689651
-0.002070720423448623
-0.001999157197993436
-0.001926791913995944
-0.00209893222210376
-0.002153216041049965
-0.002168137052969578
-0.001939046422923725
-0.001986270681020366
-0.002040564960843841
-0.002048432790840942
-0.00223988015677446
-0.002200204527793292
-0.002215619821024337
-0.002061785939071947
-0.002027340403806662
-0.07435206464790373
-0.09657857509936753
-0.0932214267217043
-0.0515685228057514
-0.06204457819398115
-0.05288652946390996
-0.06043540064828204
-0.04172351385442131
-0.02449845893991911
-0.03160856421084392
-0.02146669540532668
-0.03099149714388301
-0.02435627989037448
-0.04269846304227643
-0.04611779605000991
-0.05471773868683199
-0.03421759131270029
-0.03763378642977393
-0.0335277071720337
-0.04723356178127109
-0.05336679113066682
-0.04383996656539072
-0.02518028914922162
-0.02613886893876032
-0.0454943360807565
-0.0263412399444553
-0.0273835911172949
-0.04028896249550908
-0.06506693329913442
-0.08273266866118034
-0.0922748728793298
-0.05069356812541183
-0.06040214558989284
-0.05938153254988377
-0.05713237065523967
-0.04109254840998446
-0.02214694992037466
-0.02698310796504417
-0.02618553144602274
-0.03058833315935191
-0.02353051544136511
-0.03109159191467348
-0.04538982211603237
-0.03710470894789706
-0.04340416636237202
-0.03655615859383862
-0.03307698321205947
-0.05248408396978478
-0.04068124788528975
-0.02273334369725368
-0.03089936773143326
-0.02523902625011143
-0.03374454394286897
-0.0303081869859485
-0.02311166837945852
-0.02480983088521468
-0.01963801492957948
-0.01431386467957801
-0.01549726354424474
-0.01243800907604371
-0.01529468779416962
-0.01425341970532982
-0.01994007406341863
-0.0207560663350318
-0.02289748588274512
-0.01623034679041331
-0.01714266928377865
-0.01601328213023352
-0.02108395741533083
-0.02252811491950582
-0.02120033634335252
-0.01947294942165411
-0.02213304162517342
-0.01652000113733257
-0.02782652260037521
-0.01703172390581166
-0.02038375396283666
-0.02248529371835299
-0.03329517231823952
-0.02977968878816797
-0.02528029027344291
-0.02992160607901858
-0.02452855353841934
-0.02452874831743073
-0.01943971603542485
-0.0121508880297331
-0.0148443769709204
-0.0137779882020217
-0.01516139123530226
-0.01389785986651532
-0.01604825800688408
-0.02054088632239067
-0.01698481372118082
-0.019397763294312
-0.01714621232134665
-0.01587051303032797
-0.02228583776262089
-0.01868633317256797
-0.01230487019700096
-0.01493915431268455
-0.0128710862520605
-0.01572893263268136
-0.01474888576087309
-0.01239902237967184
-0.01277151586231213
-0.009884091321323665
-0.008970868349224892
-0.008664782081514041
-0.007846548098230134
-0.008611722982218557
-0.009950615699957631
-0.008914254538525899
-0.01057618319049199
-0.01101444867816691
-0.009212863333208293
-0.009436458225082269
-0.00915455498193013
-0.01064995252733694
-0.01093685484928677
-0.01124734802102014
-0.01137264669175989
-0.01189735430337945
-0.009830065985321469
-0.01400809219102748
-0.01003366100425264
-0.01100449741536432
-0.01211900441607994
-0.01559139669204736
-0.01453040845515279
-0.012288298066959
-0.01462391943447905
-0.01257502626282902
-0.01184758754856695
-0.009752351559659833
-0.007755620146350688
-0.008637128722044741
-0.008352067416832074
-0.008506495702196186
-0.008802053790961417
-0.009559179870837188
-0.01043023548351516
-0.00931549712297567
-0.01055894061297226
-0.008869567909694136
-0.009039005905205094
-0.01078341413032824
-0.01021658491287128
-0.006103031766708075
-0.005339892793709662
-0.005527132158938647
-0.006151896281600744
-0.005412582429829003
-0.006243890476873766
-0.00601424187109666
-0.006647474291251195
-0.007588552070619853
-0.006188071167936522
-0.006936438035565927
-0.007545929409270042
-0.006681966826550654
-0.006157573118010201
-0.006991526264643155
-0.008022489952525424
-0.007207998199999231
-0.00819868177222712
-0.00797601574283016
-0.007028872947744357
-0.007169164486044616
-0.005885543921615981
-0.004911282512981251
-0.005513531006278508
-0.005258818167516728
-0.005235746588056069
-0.005913658079174084
-0.005488421005870789
-0.006163264247432675
-0.005578012645668898
-0.006337670868329751
-0.005486497042377857
-0.00546181233085093
-0.006193513824909774
-0.006306311958464918
-0.006578856568838799
-0.006007324619333727
-0.006862348263986069
-0.007336845917793786
-0.007461273161014277
-0.00609683317594644
-0.006477826617848538
-0.00691728169584795
-0.006978448418511022
-0.00810247629895192
-0.007748276487211019
-0.007883773667084893
-0.007091988464963925
-0.006808026281249437
-0.004318250170090556
-0.004763650639924405
-0.004344673034329209
-0.004917469447585384
-0.004823568224725423
-0.00439579769465062
-0.004268544835252977
-0.003756401529443808
-0.003537605727789293
-0.00324585904453348
-0.003365998159202306
-0.003399124958313465
-0.003573881593816697
-0.003717063284198997
-0.003782919637465326
-0.003266531598298806
-0.003432537025802907
-0.003610497301178594
-0.003421428534676594
-0.003796146819124194
-0.003598320182216265
-0.003882445358828465
-0.003904351529751797
-0.003469926470542608
-0.003558697288296366
-0.003504728136444115
-0.003946930546220469
-0.003840967282665987
-0.003910416827763724
-0.003539849616039828
-0.003582720433798259
-0.003989988622120515
-0.003528167821125017
-0.003924377983506739
-0.003975649823187068
-0.004198561688937192
-0.00441157100701945
-0.003991723230041479
-0.004697682132948914
-0.004678627394087705
-0.004214393282082929
-0.003977240645522173
-0.004351814542776938
-0.004959244037745359
-0.004447593283751477
-0.004884371042482335
-0.004864086220248531
-0.00436859247918223
-0.004430327437957329
-0.1696322972390237
-0.1708953294525114
-0.1971832680353376
-0.1986024459909797
-0.2208031989246159
-0.2408937893768208
-0.2185914329472259
-0.2432886486109
-0.2226882572895782
-0.247009753709853
-0.2242486310310979
-0.2453259709831313
-0.2100217722281117
-0.2317111010214578
-0.1988470835403153
-0.2152467589128889
-0.2115053564125295
-0.2301139150793343
-0.1974447225745058
-0.1596341729978216
-0.1524691020838929
-0.154074697962084
-0.1857145975002479
-0.1739714542557492
-0.1838093600394539
-0.175772989980527
-0.1554527242355517
-0.156601197699925
-0.1639859638059095
-0.1873438473662822
-0.1785971269887356
-0.1886969814149835
-0.1773149931204228
-0.2082319163197484
-0.2259183211671276
-0.2134286926644478
-0.1937767738307722
-0.2061340771666434
-0.228184135075758
-0.1957550394293994
-0.1000996431331903
-0.1186241329688738
-0.09771647394211359
-0.14860764087023
-0.1524221832561229
-0.1231947962539359
-0.1202094428707521
-0.09480269916491661
-0.07985682892491446
-0.07927060845015654
-0.1154753342471676
-0.09466946064405042
-0.0939552337434386
-0.1163964380414565
-0.1627310888556029
-0.174149292375386
-0.1613978491192656
-0.1294968832586888
-0.1394180905962196
-0.1305444819218753
-0.138297648028762
-0.1198331037330987
-0.1024086591823982
-0.09476685514323024
-0.1245107313367904
-0.09697798842747342
-0.1169604120838033
-0.1275840579889051
-0.07888145822941181
-0.07714948826958803
-0.09210445099197992
-0.1148623282993227
-0.09136144073816428
-0.09348042656786758
-0.1121189697922623
-0.101438275806719
-0.1006339932092849
-0.120627361501268
-0.1545393814659247
-0.1532697037462764
-0.1238610918658837
-0.1248617315592839
-0.1564940391698708
-0.1731920274799271
-0.1605073502231903
-0.1287990085994994
-0.1341967857578221
-0.1256692125565112
-0.1375507941204774
-0.2131768838990479
-0.2381362029952289
-0.216050335584357
-0.2350096585837059
-0.1567961496320083
-0.1857151665291345
-0.1825516962562695
-0.2099679916522951
-0.2276211147126826
-0.2315071446856121
-0.2064208567563716
-0.1979720231626094
-0.2134023568514765
-0.2029833247785473
-0.1829536026924153
-0.2170596411948474
-0.1946219766219458
-0.1860977037921582
-0.155539012907763
-0.150638585196554
-0.1485866294719338
-0.1791725463445265
-0.1719110231315673
-0.1816284478276338
-0.1695927879494001
-0.2010062373832127
-0.2233122723536903
-0.2060774769143584
-0.1915085945666602
-0.2037262397148839
-0.2203611367801101
-0.1889492309851637
-0.1505260566881931
-0.1438379470277997
-0.1463177887141881
-0.1764430147385348
-0.1641910177608142
-0.1734422198747604
-0.1670185344031266
-0.14135791617852
-0.1568120141953347
-0.1453640881915682
-0.1171063843935289
-0.1249528995263672
-0.1249829718286479
-0.1221765789802737
-0.08270132994876535
-0.07250225575751748
-0.06880399480758176
-0.1046587099624886
-0.0774994080590361
-0.08564340670128485
-0.08784051947688888
-0.1136177548104753
-0.1063444298329198
-0.09130203453130137
-0.09115728653802953
-0.1380723381326927
-0.1120646316231536
-0.1064676105406378
-0.1120620267111471
-0.09281213144770806
-0.096669196342587
-0.1469141047518566
-0.1405873784615515
-0.1139963024110575
-0.1188905172059051
-0.1109859682346827
-0.09518722507779245
-0.09379373092998292
-0.1231515139476811
-0.09020153970761918
-0.1156917142078537
-0.1181000659343688
-0.07638967387009626
-0.07359469366008181
-0.09113654726187619
-0.1064250060254175
-0.09042949368062665
-0.08699200634367751
-0.1109085534847276
-0.1597066961542948
-0.1547094465219306
-0.1480271797794421
-0.1191402932626219
-0.1327109821402622
-0.1242849509479932
-0.1271763738727202
-0.17265059293622
-0.1719014711099692
-0.2005673988784401
-0.19973008158403
-0.2270040635517918
-0.2502905061724116
-0.2499757600154684
-0.2272977811780413
-0.2264028267895851
-0.2483431564679715
-0.2254860016455137
-0.2493297961119942
-0.2135607210399364
-0.2329786305896253
-0.1999634160296967
-0.2188436593642614
-0.2126842633778104
-0.2339198240795053
-0.2007955082134461
-0.1661465814800413
-0.1586608359615487
-0.15888779782822
-0.1911064802975154
-0.1811397184385608
-0.1808883657851995
-0.1913686122304475
-0.1575187959584701
-0.1649501517122862
-0.1582050893139827
-0.1905764329247514
-0.1796194044015475
-0.1897741643236297
-0.1803825355055515
-0.2141386233815732
-0.2348447269861829
-0.2194334600554931
-0.201619391476075
-0.2345396083457288
-0.2013462247836117
-0.2144236197271604
-0.2843371459723651
-0.269621973026934
-0.2692886405406024
-0.2846859695741463
-0.2939244444650404
-0.2980328347399174
-0.2928012332252458
-0.2991721374636196
-0.2836223869354886
-0.2675589860513273
-0.2686044219752586
-0.2825308714164845
-0.2643331432080337
-0.2500248608017434
-0.2339851519408264
-0.2447821159323435
-0.2510201622778975
-0.26329567792568
-0.2457626851991054
-0.2741524913392035
-0.2791492889706361
-0.2548160673611347
-0.2585867147675086
-0.2544858496466908
-0.2744991158565258
-0.2787968339402817
-0.2650161279314504
-0.2519976544257604
-0.2346076261118641
-0.2467318262272105
-0.2516752644399022
-0.2464107165729077
-0.2653525420610282
-0.2734500463449179
-0.2770031150505984
-0.2528131268658473
-0.2579118461527152
-0.2723836544811045
-0.2538201337386659
-0.2780841926263227
-0.2769260750222221
-0.259647096032279
-0.2621945408073969
-0.2742603554879246
-0.2893618240285745
-0.2964927013263969
-0.2912825424925664
-0.2945445702128792
-0.279188457581108
-0.2661453099106622
-0.2643586797661371
-0.2810547976009051
-0.2601328817937674
-0.2486835959085745
-0.2301840937494603
-0.2434639797095729
-0.2469920638442812
-0.2618973105187836
-0.2418039125495794
-0.2669355418829208
-0.2688556431161961
-0.2452669220139023
-0.2517012717294803
-0.2476918137941558
-0.2643487785457149
-0.2714796025873942
-0.2579971724410359
-0.2425407157875816
-0.2282596544129805
-0.2374394891657824
-0.2449461000483832
-0.2397974660543907
-0.2554839134383784
-0.2691323432512555
-0.2755462479309795
-0.2514593911937779
-0.2537915711698551
-0.2709463720547171
-0.2497539949875911
-0.2737072458209181
-0.1734336397161322
-0.1865176581689175
-0.1886898715470151
-0.2009534404368876
-0.1851987635802851
-0.1746686830298809
-0.1873671678501941
-0.1391341764173823
-0.1451017311894377
-0.1466170375167697
-0.15625795567477
-0.1642043599736507
-0.1658990714820962
-0.1546706169577516
-0.1256348782256165
-0.1265291128898547
-0.1338569713671167
-0.14822885318624
-0.1402371860967529
-0.1392494691357202
-0.149288836840486
-0.1608550232557426
-0.1488773779196809
-0.1611830129314305
-0.1713462094579561
-0.1503767146826098
-0.1730774424953742
-0.1592398867710972
-0.1479184486493119
-0.1490039495670484
-0.1413790012581478
-0.1576190453663822
-0.1685593953478411
-0.1673509576682464
-0.1587529564386969
-0.1622388730454542
-0.17579108307952
-0.1527341735675432
-0.1625573810750497
-0.1516625599263643
-0.1633911271689664
-0.1745588889010201
-0.1719488985343197
-0.1992486757620575
-0.1817551813422682
-0.1839126354011299
-0.1836115145243984
-0.1857751659072378
-0.1702142695828503
-0.2115495300650206
-0.2015340457080551
-0.2177249520257413
-0.2272082077182587
-0.228130089652398
-0.2023642612752762
-0.2106868324372836
-0.2184118605690437
-0.2218995016468013
-0.2361822114591165
-0.2394888547482649
-0.2358702836490497
-0.2187045588927268
-0.2216029439855212
-0.1966022061313166
-0.182431917687317
-0.1750129509883561
-0.1887337663852897
-0.1821839210052073
-0.188476997489735
-0.1968687543502113
-0.2016013648218902
-0.1890407230738526
-0.1858016089188521
-0.203573242096788
-0.1865668739595184
-0.2007770831046682
-0.2044077343257559
-0.1960677919396293
-0.1871877886924612
-0.1745339679886562
-0.1809401506174648
-0.1816870484823418
-0.187962212318155
-0.1952636926460746
-0.2121221647318849
-0.218312346974309
-0.2290446618736089
-0.2031899948405805
-0.2287409283429661
-0.20291541879967
-0.2124074553243865
-0.2178245301309203
-0.2342972610300139
-0.2388536368983437
-0.2201121151155031
-0.2352433306368864
-0.2169397158953194
-0.2210081180889242
-0.176391640699139
-0.1875690659745916
-0.1897445410121723
-0.2043352613107481
-0.1883542573414886
-0.1756544316800199
-0.1905326451079365
-0.143421676653332
-0.1509549773727548
-0.1511708510240553
-0.1607889607663489
-0.1709635037002876
-0.1707247325356875
-0.161014198737295
-0.1351990961117701
-0.1272458893440003
-0.1346237479707644
-0.1507721448666614
-0.1410278669992979
-0.1416208935806608
-0.1501367176149642
-0.1654596346237153
-0.1548745815787066
-0.1657564780954719
-0.1782440855908755
-0.1546609710478171
-0.1779999393401988
-0.1656885561118827
-0.1498721494320488
-0.1505224057349094
-0.1421965370400827
-0.1603376325151302
-0.169524143951947
-0.1702455403454601
-0.159659161262909
-0.1650010178847713
-0.1767746908230763
-0.1535911268118451
-0.1653007163836133
-0.1542333128860647
-0.1643117458932872
-0.177510585249791
-0.17688157877693
-0.204892493145621
-0.1891344879941959
-0.1913168752968722
-0.1888752198483325
-0.191056054327186
-0.1771258659509534
-0.2080804463298946
-0.2004224066246628
-0.2141557814618242
-0.2259714919232273
-0.2244164741051053
-0.1990272586336596
-0.2095313320795944
-0.2124704779566463
-0.2134522873840924
-0.2272401756399053
-0.2330388995246052
-0.2295037877380006
-0.2103653429346846
-0.2155853774661065
-0.1912149303230222
-0.1754299374523874
-0.1702006571090703
-0.1814646152135891
-0.1771879546600746
-0.1832918462242713
-0.1893138320345676
-0.1982907957808965
-0.1859333736942132
-0.18477879100724
-0.2024566818419018
-0.1834971095576791
-0.1996742476499075
-0.201055832597234
-0.1928390414002585
-0.1861521550618268
-0.1716481452300745
-0.1799420506337264
-0.178691661954949
-0.1848539350362205
-0.194188035089622
-0.206331539525121
-0.2123537821643978
-0.2203368834633468
-0.1953782351333016
-0.2225396031039554
-0.197346582492928
-0.2042817298904573
-0.2142657025460146
-0.2330279600224521
-0.234992271896309
-0.218911789561688
-0.2314315037283747
-0.2157544213508925
-0.2174039856288107
-0.2676795791514647
-0.2567088759070297
-0.2533708065555595
-0.2711819796135174
-0.2734257146813239
-0.2737389379131258
-0.2688813592526169
-0.2783607689663742
-0.263739842981983
-0.2454518574492686
-0.249622385809292
-0.2593476166141916
-0.2455948810959498
-0.2291871497947329
-0.2171593767466567
-0.2243578890796095
-0.2331014638404636
-0.2414808851657804
-0.2281910991092301
-0.2579685730448585
-0.2658260367693771
-0.2424723245371661
-0.243188877769395
-0.26136327234859
-0.239299932614093
-0.2623796719669662
-0.2492925436357339
-0.2397697794222531
-0.2204555791079953
-0.2347238937390891
-0.2366260711383001
-0.2525854124337203
-0.2316436804193532
-0.2541526525513108
-0.2541837204695845
-0.2317848538812763
-0.2395755764899703
-0.2499020582553168
-0.2357407011381656
-0.2585037092644487
-0.2080911120142218
-0.1937334610869216
-0.2135849877084605
-0.1588285983188063
-0.131986393750844
-0.1504545466650329
-0.1414229151314836
-0.1352164372808067
-0.1628583420295172
-0.1542373629968991
-0.1951226972892006
-0.1825568587848653
-0.1674831738868516
-0.1826745194157973
-0.1873060713060966
-0.2002466884474731
-0.1717775277800147
-0.1506420122861369
-0.1538258329122127
-0.1753770265991267
-0.1791038151589131
-0.1983040886765725
-0.2233437649869469
-0.2025332951090448
-0.2186673934713111
-0.1869721081165102
-0.1917240877319228
-0.209384021935192
-0.1795174095490853
-0.1909552400939016
-0.2049999635875993
-0.1757908830106576
-0.147692442053008
-0.1411545767296632
-0.1382769724678799
-0.1666434281475229
-0.1611142603789523
-0.1701738829926208
-0.1577938676680199
-0.2368985623321
-0.2242857589993918
-0.2432808065481727
-0.2302766587265974
-0.2321374261685152
-0.2117983888152501
-0.2152212814324546
-0.2343926480233895
-0.2209648861103
-0.2174372174537449
-0.238397481358451
-0.209453911746056
-0.1952120740531966
-0.2050596812149121
-0.2265156122393519
-0.2003450090987577
-0.2150149658181685
-0.2104925503377958
-0.258291384456106
-0.2686117268524153
-0.2638438155874743
-0.262955657173962
-0.2491368526333891
-0.2408464221487978
-0.2544860480457267
-0.2357925706400423
-0.2319539424771744
-0.2051033224242203
-0.2248739399685035
-0.2201356220408002
-0.2369381739977775
-0.2201526952895458
-0.2155161968885818
-0.2400375355219103
-0.2262628639969652
-0.2494039166122511
-0.2274222209013796
-0.2452021566211681
-0.2226427444895505
-0.2441475337932271
-0.1819264382638439
-0.1963357656174989
-0.1993491547262452
-0.1866328375173097
-0.2045995956527737
-0.2014948719489153
-0.1893636783254203
-0.1522116604129799
-0.1572489570848132
-0.1462822903364827
-0.1681268240463686
-0.149881865296059
-0.1559858668376724
-0.1611960737019602
-0.1817217748853591
-0.1904004661903223
-0.1690593139126753
-0.1812520694540285
-0.1864388368181395
-0.1953798177181879
-0.1733796804780166
-0.1854879613788347
-0.1908257547879715
-0.1811448468553839
-0.2042631541083073
-0.2000006284833277
-0.1774096857893852
-0.1894070828154755
-0.1768571119027259
-0.1659618344495868
-0.1671788829665448
-0.1830816549053792
-0.1637942190600213
-0.1805611473809517
-0.1793213731416717
-0.171999647733245
-0.1532568126657056
-0.1683182590499083
-0.1628064488172948
-0.1595197125149984
-0.1648879133343511
-0.175592704608491
-0.1910094416191649
-0.2094617264211861
-0.2106801270968409
-0.1979200464304085
-0.2062757351803819
-0.1950541366442307
-0.1938116759165101
-0.1196329466492713
-0.1258125488021611
-0.1421889665261611
-0.122479359072246
-0.1288528972562609
-0.1374309091955546
-0.1457185638009358
-0.1382050909848883
-0.1485761236063929
-0.1386334166295422
-0.1415872866864921
-0.1420079907162567
-0.1325781969422115
-0.1522657238966165
-0.170560397254881
-0.1572509722038727
-0.1592207139127446
-0.1511479387492899
-0.17494107441889
-0.1612317573716727
-0.1632465943310583
-0.1545962965240526
-0.1790273765127331
-0.1684277126394859
-0.1705094649342646
-0.1649596839933674
-0.1670115484763304
-0.1578101728684271
-0.1124196848000542
-0.1146206245930493
-0.1210802241109396
-0.132318259159533
-0.1269684498597341
-0.1244881192497548
-0.1349996719263012
-0.1344416767816491
-0.1317332835874419
-0.1277130315704502
-0.1405200209179626
-0.1521458291992495
-0.1490407430021115
-0.1434106699035121
-0.1447667392371424
-0.1451779018188902
-0.1589445517341265
-0.1382370922597284
-0.1355024801206925
-0.1557242744714744
-0.1477351775983437
-0.1635132893014314
-0.1894877133340943
-0.1716310619602374
-0.1737365487677956
-0.1745667094919845
-0.1607838443974804
-0.1766907549282306
-0.1342740397870285
-0.1433751963260334
-0.1414408879063854
-0.1508231732342939
-0.1622678249659672
-0.1600909808534776
-0.1528583871472816
-0.1253338701980048