/*--------------------------------*- C++ -*----------------------------------*\
  =========                 |
  \\      /  F ield         | OpenFOAM: The Open Source CFD Toolbox
   \\    /   O peration     | Website:  https://openfoam.org
    \\  /    A nd           | Version:  7
     \\/     M anipulation  |
\*---------------------------------------------------------------------------*/
FoamFile
{
    version     2.0;
    format      ascii;
    class       surfaceScalarField;
    location    "0";
    object      phi;
}
// * * * * * * * * * * * * * * * * * * * * * * * * * * * * * * * * * * * * * //

dimensions      [0 3 -1 0 0 0 0];

internalField   nonuniform List<scalar> 
36680
(
-5.765439400609975e-05
0.4491159278829287
-2.591464313584677e-06
4.952913987147589e-05
-0.4491087749119167
3.563747448330401e-06
7.640215825620335e-05
-3.860334135544208e-05
-4.052536283860597e-05
-1.479554933273008e-05
-1.426602980342251e-05
-1.796140815678328
5.643809082427014e-05
-1.795987693219828
4.234070337320344e-05
-1.795875287381278
3.194053119850034e-05
-1.795792453695817
2.399737865909506e-05
-1.795731211138531
1.769706041538572e-05
-1.795686111330582
1.248648376773402e-05
-1.795653465867524
7.979001239821337e-06
-1.795630797984671
3.891359618399362e-06
-1.795616489989157
-1.795609565765304
-2.584189962469147e-05
-0.1123041633144428
1.201045900879813e-06
2.599920683536844e-05
0.1123047830309503
-1.978069619097723e-06
-6.603040765198753e-05
-6.265197523504903e-06
0.1124019895238817
5.774795623900421e-05
-0.1123956562860098
8.214411062314648e-06
-2.08952896776466e-06
0.1123129660211521
-2.827847386477345e-05
-0.1123110321300817
2.592211990025582e-06
2.200295682223303e-05
-0.0003279607313235084
-1.65425897628163e-05
0.007320599541994178
0.0002980354391307751
-0.007296134616863258
-0.000412497679454618
-0.02844914622551641
0.0003589062216177141
1.22473840989666e-05
0.02849048532899215
-0.0001495105679000364
-0.02826155374979655
0.000133001463601658
3.807748101695632e-06
0.02827425228049278
0.0001184383836183395
0.1125392740935336
-1.550577579208136e-05
-0.0001389505165034246
-0.1125234492773597
2.019309249725762e-05
0.1125033138731197
0.0001015431504197946
-1.277333197063339e-05
-0.112490306551118
1.666124307293298e-05
1.841168503065916e-05
-0.007525034170984005
-2.058357942184903e-05
3.144863578210604e-07
1.509009988412753e-05
4.702563736580125e-06
-1.683720998661653e-05
-0.007451370307738888
-4.469046349332107e-06
7.95788603255889e-05
0.0005967486066428257
-0.00773156087868638
-0.0006791048068496093
-6.925329610006162e-05
0.007803591514664448
4.918176519167841e-05
-5.65525495824587e-05
-0.008116179556000249
7.128156191281583e-07
0.0006192631874552433
-0.007757448282849954
9.692803895889506e-06
-0.0007035176329711804
0.0078320066157383
5.927565938412393e-06
4.731615962817268e-05
-5.448720616220226e-05
-0.008077965523203371
-5.148111829738581e-06
4.049138059320012e-05
1.251599824643991e-05
-4.680161201926829e-05
-0.007937943716594755
-1.169960863852889e-05
0.0005086390785263529
-0.007642116937467029
0.0001638487129126495
0.00770351728153992
-0.0005801329883580241
-0.0001537551471556882
0.000589834108164153
-0.007723781872096088
-0.0006714909278073367
9.003556190394082e-05
0.007794981990147691
4.678185463930525e-05
-5.389806436936715e-05
6.721660006753479e-06
-0.008066268363080406
-6.810203497302626e-05
2.126993852138843e-06
0.112405436646533
5.944784503064682e-05
-0.1123989132467589
-9.989516999268748e-06
-0.1124094594651286
-9.49520641678413e-07
8.752791451542152e-06
1.246097797353307e-06
-1.029919642543584e-05
-0.112413133664015
3.206015985927067e-07
9.006305726089181e-06
4.05965468974756e-05
-4.590456107671362e-05
0.1123568279641294
1.31031217528326e-06
-0.1123528333437243
6.209178664553884e-06
-6.993905820723923e-06
-0.1123615070037775
1.992174993763369e-07
3.960775795512764e-05
-4.473205548727321e-05
-3.873694634393118e-06
0.1123546848822006
-0.112350781584345
5.094694312646197e-06
6.061735225651759e-06
-6.819311625588443e-06
-5.928587505845533e-07
-0.1123592580747541
7.806708825956544e-07
2.603140773522888e-05
7.41564374274974e-07
0.1123141661796101
-2.885557699627839e-05
-0.1123120858203315
-0.1123155364754691
-3.245629506704503e-07
-4.387838034808763e-06
4.197639017352423e-07
4.008399374081167e-06
4.06904257831721e-06
-0.1123167273431616
1.128689568282961e-07
-4.476116306629447e-06
3.605730389466545e-05
0.1123442643772563
1.122466288805432e-06
-0.1123408504617789
5.539602911488854e-06
-0.1123482571955137
1.713564986722585e-07
3.521369578731833e-05
-3.319591417826079e-06
0.1123424222762264
-0.1123390776305122
4.369007781488968e-06
5.41350040937049e-06
-5.10014500052228e-07
-0.1123463381759944
6.719644858034014e-07
-0.0002480054069469666
-0.007391649708054796
3.988623465687433e-06
0.007411942980168531
0.0002237205598787436
-0.02848365803323388
1.439999411148598e-05
-0.0004760033284239162
0.02853275832584749
3.353234090536757e-05
-3.930480518193052e-05
-0.02872383065159583
1.14384831534363e-06
6.302920448208179e-05
-0.0002984383853707605
-5.837393632160882e-05
0.007301280410391217
0.0002715332959577573
-0.007279030589139563
-0.0002347099111506401
-0.00737628415773338
-3.133920310411664e-05
3.505886197849436e-05
0.007395477560704894
0.0002117968493032867
0.0003620186663992185
-0.0284532165333424
0.0001020406784260928
0.028496391375569
-0.0004152697212294387
-9.196446582810512e-05
2.925499507847366e-05
8.12516693487906e-06
-3.407165209258509e-05
-0.02866336164353731
-7.326625640059761e-06
-0.02864906343549903
2.877123895830024e-05
9.617966185498401e-07
-0.02827827514312042
4.345665911391237e-06
-0.0001679443792100606
0.02829236027950997
1.135666080017918e-05
-1.271369041298216e-05
-0.02834250260049134
3.219461510311851e-07
-0.02842218506479827
8.702405113653553e-05
0.0003168101302687875
0.02845873669493545
-7.836714517398655e-05
6.851533384562069e-06
-0.0285981258111445
2.525819528025745e-05
-6.17373773912843e-06
0.000137178602431805
-0.02826699008344816
3.156139587325818e-05
0.02827958908192723
-0.0001530193619985829
-2.83196347849255e-05
1.0350033020008e-05
2.356079489144418e-06
-1.153353142720391e-05
-0.02832521284636873
-2.110262217339495e-06
-0.02831769304533616
1.07594068087948e-05
2.794291444679327e-07
0.0002466011436661808
-0.0002989208373298405
0.112777224834856
1.258796480254053e-05
-0.1127375008423465
3.777555299510245e-05
-4.605859276556323e-05
-0.1128260036340603
1.923746640796218e-06
-0.02825146167732804
2.846181008457106e-05
0.0001228207188843316
0.02826257052515363
-2.521277439699099e-05
2.054711016476588e-06
-0.02830261075513275
9.845738312194616e-06
-1.838319261853589e-06
0.0002333098800401772
-3.636739184519805e-05
-0.0002813613850252371
0.1127579058353715
-0.1127204166330264
4.692969450564112e-05
3.57020455986012e-05
-5.570907370113937e-06
-4.330349031280463e-05
-0.1128038789296451
7.189012037352369e-06
1.790864008377472e-05
-0.1125582446010007
-2.343517875816105e-06
-2.104557964867713e-05
3.052785324192938e-06
0.1127042872820248
0.0002051367746603873
1.00076674705649e-05
-0.1126728375804263
-0.112742630100735
3.127744346663846e-05
1.522126716188401e-06
0.0001233471025675867
5.307903515732625e-06
-0.0001451587179905281
0.1125476952084483
-0.1125311968953859
1.865381469233927e-05
7.997472444384479e-07
-2.199319103255793e-05
-0.1125674898131752
0.0001949335906328318
-2.901321332663217e-05
0.1126887656858866
-0.1126589285863702
3.755240319082739e-05
2.969828275860279e-05
-4.42221905353771e-06
-0.1127250867000562
5.722570027788152e-06
-0.1125188459557123
1.533970447909781e-05
-1.928634196394744e-06
2.516717692913168e-06
-7.584316352407174e-05
-7.421965172169366e-06
0.1124223037760572
-0.1124147889941813
9.719939066954859e-06
2.523285768774006e-06
0.112426379796668
-7.838579822894241e-05
-0.1124186233797371
-1.146053259904887e-05
-0.1124311912335756
-1.122529797028716e-06
1.471270652062419e-06
-0.1124355571222058
3.797427137379223e-07
-1.184177010242864e-05
4.364025627978138e-06
0.0001054559505051519
0.1125102753928875
-0.1124967532713992
6.56588833129252e-07
1.593089983134345e-05
-0.1125264336560541
-3.710569450444905e-05
0.008554460417896176
0.000732870201445519
-0.0008592383449199663
-0.008437806192976171
4.681961305959049e-05
-9.61272323127173e-05
-0.001384635154309244
0.0001136616838215164
0.001192700565241363
0.008255565272654933
-0.008081165135094307
-0.001392493344795582
0.001200061740124698
-7.918975831950623e-05
0.008265285788194698
-0.008089791657531174
7.791323840897488e-05
0.008520417418688366
0.0007190141054428026
-0.0008443031133952607
-6.716628330828136e-05
-0.008405875365836738
7.173084631880279e-05
-0.007677642968516192
-6.252511277593964e-05
0.007738969104531641
0.0005262167370735366
-0.007519881906029169
-0.0003834896419036851
5.928063016306315e-06
0.0003426059129577787
0.00755483425545832
-0.00800459472021562
6.443593144356405e-07
4.295323103912374e-05
2.510378451110658e-06
1.764595312873555e-05
-2.203814256897725e-06
-0.007507474268392637
-1.972751908217672e-05
-0.007513805611951656
-0.0003780363839218871
-2.371510758119563e-05
0.0003376492936236809
2.963476507298139e-05
0.007548273044759361
-0.007701590862026305
8.796917257254547e-06
0.007765182117250564
0.0005468716425782958
5.321191224163216e-06
-0.007969684044690662
-4.629936077633992e-06
4.127734405395366e-05
0.001333701922964209
-0.0001891176132417382
0.0002129172586890596
0.008308758646164253
-0.008106213906054538
0.008441750851167225
0.0001259017366525417
0.0006849765280670482
-0.0008070459231759225
-0.0001130753341942971
-0.008332507858518464
-0.001363379519312109
-0.0001318921588639157
0.0001509140777782019
0.001172933678847102
0.008230168684220735
-0.008058744762670463
0.008504356097008399
0.0007123595283213489
-0.0008370685635733794
8.911559834618741e-05
-0.008390849421711463
-0.0001708151992087075
0.0001916703285825812
0.001145527598754283
0.008196999663504746
-0.00802968046868407
1.097957973390081e-05
-0.007845260195357235
3.52294955455621e-05
-1.029925090180872e-05
-7.00307688088959e-05
-0.007472244565983748
-0.0003385845052380336
7.541543040119772e-05
0.0003023222387638774
0.007503122170864771
-0.007596365650862712
0.000144859145204193
0.0004478879379951128
0.007648572589503021
-0.000136314943335371
-0.00767053563737588
8.100741195104102e-05
0.007731136945871389
0.0005199562340167193
1.742503219808328e-05
2.812511818432602e-06
-0.007502476219455816
-1.947975130323699e-05
-0.007479475309996867
-0.0003457567611395632
0.0003086923165909162
-6.449391721272754e-05
0.007511002902918834
6.021467895969449e-06
-0.007959169325590931
4.079517993242418e-05
0.008560884671407861
0.000735633367571701
-0.0008621359196827691
-0.008443865922597485
-2.762189122351635e-05
-0.001407174703813757
1.542825103542614e-05
0.00121492595209109
0.008283013420074949
-0.008106194719695798
-0.001405686935766965
-3.096477471361817e-05
4.670642567666188e-05
0.001212887566145634
0.008281609472773599
-0.008104551754115145
0.008566654863590106
0.000739158764958582
-0.0008654179989386482
9.122746057267178e-06
-0.008449522697592056
2.936249455793396e-05
0.000591336125287157
-0.0006946122787826341
-2.185431519250904e-05
0.008656652645516651
8.857459181329749e-05
-0.0001039976973703392
-0.00877639039887276
1.056342733862909e-06
0.000594613002534594
-0.000697975491207659
7.216308165631874e-06
0.008662797023867535
4.299463634936099e-06
8.754274586646846e-05
-0.0001025373683319216
-0.008768903095457449
-3.199735696302317e-06
0.0005890329950938981
-0.00069215055837014
3.705716629827644e-05
0.008649883309387412
8.572813228277478e-05
9.055446257102354e-06
-0.0001006181377162178
-0.008723714009872496
-7.798254656965536e-06
0.0005778763485650457
6.172999710259392e-05
-0.0006800844918514152
-5.319369660542358e-05
0.008614089261459732
8.7224303086163e-05
-0.0001021932222418359
-0.008761620703247189
5.427594252764193e-06
-3.37019953888082e-05
0.008385479083641303
-0.008290617378082456
0.0006292386661411017
4.247182511500269e-05
9.774411998163546e-05
0.0007756582543205897
-8.475316214680146e-05
-0.0008893164347592602
0.007953513436220128
-0.007852846213615724
-0.0007886184941329579
6.526985378620661e-05
0.0006909910040575786
-5.40773151298534e-05
0.007889991693174914
-0.00780355674175591
0.007984852353509434
5.128255051414429e-05
0.0004013918604451448
-0.007932135276028899
-4.457420346977384e-05
-0.0004608172849664903
7.205385560214664e-05
-0.0009033894535239046
-5.961711150446155e-05
0.007970027919878721
-0.00786769370459991
-2.506378438452569e-05
0.008008091396471803
0.0004112289362994574
-0.0004716047561203602
-0.00795412614151484
3.147434924938612e-05
0.008354483359589346
7.028534522124674e-05
-6.072321112362687e-05
-0.008261465888285972
0.0006164345000239886
-0.00839154808979339
2.665372370681495e-05
0.000506778501961597
-1.985770937727321e-05
0.008469309698771037
7.585241552242589e-05
-0.008569129671993985
9.590180869560876e-07
-0.008019514178942807
0.0003321284945154215
0.008063770146006398
4.903925992641481e-06
-0.0003812925515211277
2.889000130606407e-06
4.873880751271233e-05
-2.15716464544084e-06
-0.008108790905356426
-5.603337981159753e-05
-0.008012937414495731
1.979142265756478e-05
0.0003296303299849912
-0.0003785738627901102
-1.478628945460343e-05
0.008056875814098355
-0.008398262750773917
6.564894875955032e-06
0.008476400902855199
0.0005099058654597194
3.900242473749267e-06
-0.008561080808287096
-2.904979812513021e-06
7.507537800761942e-05
-0.008296351959431099
0.0006318481292523285
-2.511288749424381e-05
2.350626616762357e-05
0.00080120035511442
-1.172634143945988e-05
-0.0009167117545781756
0.007985874273937314
-0.007882142799199989
-1.941614703387418e-05
0.0006170626028463938
-0.000701201531642021
2.919250783659325e-05
0.007829373002837614
-0.007755010434847616
0.000416347583539365
-0.007964959713394594
6.212870402528167e-06
-0.0004771189467593674
0.000799570789399675
-0.000915050491812144
3.538477774389002e-05
0.007983956771522287
-0.007880355580715523
0.0004133168829118985
-0.0004738705675605722
-0.007958719576590702
-1.872793768975558e-05
8.304250284760965e-06
-0.008302805441038856
0.0006353930110676126
0.0005046286435133904
3.359648242606036e-05
0.008462940676447145
8.158770050532124e-06
7.333892519695034e-05
-0.008519994145014941
-7.04185095073803e-06
4.053185801775351e-05
0.0003200860902212775
0.008027554003794615
-3.521975322504857e-05
-0.0003680998453118767
4.847957986375203e-05
3.630210890120372e-06
-0.008103454913206494
-5.575290607355788e-05
0.0003279443512781911
-0.000376734075636872
2.485776145352338e-05
0.008051814781985134
5.565126411088846e-05
-4.806179413584093e-05
0.008430428717731777
0.0004943415204232294
-0.008554304026882575
4.917839917740325e-06
7.476893745945456e-05
9.999326067957573e-05
0.0005507303666174373
-0.0006503605507707741
-8.973969276574837e-05
0.008531127467394395
8.496801517692366e-05
-9.979867508498917e-05
-0.008705827059495453
1.037017088607507e-05
0.0005725630655804023
-0.0006743049848672768
7.063938160596802e-05
0.008597188631765255
1.472434335988634e-05
8.178691803994951e-05
-9.63199201172725e-05
-0.008635694996164128
-1.319902929653903e-05
0.001022762272545526
0.000283331827724794
-0.008362245503915561
0.008539542852494407
-0.0002573266217758234
0.0003104984774081328
-0.001206605467409573
0.008078985844565342
0.001030747287884246
-0.0002850714769460721
-0.007928554665503041
0.0002475401422379029
-0.008227532698319285
0.008368234918414996
0.0008608901606957585
-0.0002263702504935997
0.008415804936352822
0.0006729114192939648
0.0001393094616457702
-0.0007936817678859271
-0.008308442312767474
0.0002603048451284441
-0.001268635395073715
-0.0002364217250644144
0.001086207188703434
0.008132394355726316
-0.007973849269419058
-0.008671161544954396
7.400227900470764e-05
-0.0003150939874912795
0.008714903892771114
0.0002646836742821234
-6.733431360988108e-05
0.0001217699133001358
-0.0005213787043247178
-0.008596829554060053
0.0004361638949137958
-0.0001108870948005788
0.0005411111503679681
0.00011073570008518
-0.0006397031584679374
0.00850365450502992
8.038792852721257e-05
1.632820139002378e-05
-9.47734465340691e-05
-0.008606421103549082
1.637474066585391e-05
5.442216439356661e-05
-0.008171274670796206
-6.368204822478597e-05
-1.517257187270065e-05
-0.0002668008885796814
7.039353897572575e-05
0.008025771946973233
0.0002296147250582462
-0.007993403676462955
-6.557564596333542e-05
8.052990147293397e-05
0.008147288647932158
-0.0003120637200535701
-0.008107882303866873
-7.467341408295705e-05
-0.008260503828128356
-8.899435208760271e-05
9.812561618904842e-05
0.0004610484875088009
0.008331435226878679
-9.184888760869013e-06
4.377947689479919e-05
1.002467823424271e-05
-0.008003085056979666
-5.054184661805785e-05
-0.007916915709532794
-6.264098106526376e-05
0.0002959633966380761
6.831156995017884e-05
-0.0003411526853356229
0.007956434409344921
-1.3093050741979e-05
1.445409407067633e-05
-0.008415081558892503
6.84878550972973e-05
0.007913193012388723
0.0001895899769868702
0.0006072270987871003
-0.007831053296387495
-0.0007025053804217749
-0.0001764514113512892
0.000127862867146204
-0.007761112974279445
-0.0004656786233850889
0.007813247950991377
-0.0001197938865805722
0.0004054746661057937
0.0001657334845674288
0.000537777133288969
-0.0006247691442686898
0.007988526770670825
-0.0001540752318896498
-0.0001121475422511937
0.0001235612029800269
-0.008173671827646166
0.0005746657580729818
-0.0007030795641419855
0.0001613739769591248
0.0006138639334200671
-0.0001489598233541845
0.007799284649288815
-0.007722483172170926
0.000181813760470518
-0.0008088585441287463
-0.0001672496793385181
0.007870076329765774
-0.007778861430927148
-7.913269851051133e-05
0.0003710669127196386
8.625380517967839e-05
-0.0004269667441909276
-0.007868136984745264
0.008283701221304266
-0.0001011062492714102
-0.00819526213194414
0.0005854961457112365
0.0007673035820938737
0.00011104677006757
-0.0008801850115203006
0.007943122678795394
-0.007843543899467188
-0.0001006108242357739
0.0005727818147028924
-0.0006525940840335627
0.0001112791062699439
0.007774369820014567
-0.007705225832720485
0.007974199174898122
0.0003968239258274811
-0.007922071765896833
-0.0004557701936333263
5.810140930392599e-05
0.008339977937622818
8.018617268678972e-05
-0.008247859685901604
0.0006103404491104218
-0.0001246688198284484
0.0007464302379700522
-0.0008572177831375165
0.0001386015205145134
0.007918118012334266
-0.007821263167851955
0.007933457147376591
0.0003787193254631481
-0.0004355834983964717
-0.007883680963311325
-7.204470965631943e-05
-8.017893680397507e-05
0.0004696794855114115
0.008355936687105421
7.263639409596719e-05
-0.008503902475566471
9.31875876914304e-06
4.466978928654797e-05
-8.352092650811203e-06
-0.008021381417061201
-5.154371591693423e-05
0.0003164504847440711
0.00801642334552604
-0.0003640790335003244
4.593623612380846e-05
6.351888722107311e-05
0.008415194646638246
0.0004894787334258133
0.0003020508443289845
-0.000348011757005048
0.007973781517734856
-5.700443877592799e-05
-0.008441123632360535
-1.178349211173964e-05
6.974499780076497e-05
0.0006435171680348629
8.741890703878366e-05
-0.0007295494596738449
-7.611479320333535e-05
-0.00765683270089959
0.0006680940001302606
1.067125081630347e-05
-0.000756193739291805
-0.007680022794443436
7.888770129571862e-05
-6.879438104987794e-05
0.0005693939445991313
-0.007613613065344257
-0.000418490948511862
6.554868243450172e-06
0.0003747125111387761
-0.007482661487896504
-0.000412513342466588
-2.6213959124395e-05
0.0003692743185312854
3.275206390301002e-05
-0.007477104692809508
9.69364743607105e-06
0.0005919521523643362
-0.007635145769971158
0.0005482170313888711
0.0001788864332157942
-0.0006227210264969185
-0.007578481620335595
-0.0001680177552653909
0.0006359973693323903
-0.0007212800251510495
9.884886512000146e-05
-0.007649929174377572
0.0001584801872407566
0.0004845018684924812
-0.007541887556734882
-0.0001492431185126246
-7.72500870597344e-05
-0.0003694206862593039
8.316064126877221e-05
0.0003306329998731361
-0.007439367433834572
8.90447828483721e-05
0.0005625763866063739
-0.007607271736222082
-0.0003772384945318298
0.0003375878281686701
-7.116673447229984e-05
-0.007445907996261446
-0.008622710465593599
-0.0003059783710639308
0.008665124045798694
0.000256620601673638
8.094646817809379e-05
-0.0005059954010156077
-0.008550648559485036
0.0004226374589205631
0.0001330659492601497
0.0009911818162303052
-0.008323207373713682
0.008495191412251326
0.0003104953841616102
-0.001168253311564037
0.00804903816931965
0.000997027238703976
0.0003362111921524687
-0.007903524811221569
-0.00819281744386734
0.008329090458760936
0.0008332439773716089
0.000269204966181654
-4.529554463184669e-05
-0.007912805119913251
1.330191065462546e-05
3.918159547895593e-05
-0.0002579640379942129
0.007997674838416626
0.0002219817195855289
-0.007966372385236269
7.507340418660198e-05
5.269234956760157e-05
-0.008138383386912296
-6.17005566941819e-05
1.756198690405295e-05
0.008115167313501977
-0.0003018428249849182
-0.008077052198889536
8.629357382695378e-05
-0.0004500561500679813
0.00779223562629819
0.0001355735248483886
-0.007741844517391874
0.0003919543834340152
0.007686173937453466
-0.0005606891538815318
0.0001734524903848462
0.0004917308274095917
-0.007626819388476889
0.007888856439739821
0.0005868054666192424
-0.007809478233972966
-0.0006789655900115459
0.0002023718945921659
0.0005197181722387493
-0.0006039057463857274
0.007961665304235357
0.0001771121941852707
-0.1123043138646853
2.358105471600425e-05
7.376745420102716e-07
0.1123060245068217
8.779542851007627e-06
8.903572208013404e-07
-0.1122984635553301
-1.022997307663053e-05
0.1123000754797889
-1.051851443528243e-06
-0.1123084243074146
1.010916131395863e-07
3.847292969530286e-06
3.887602993110257e-06
0.4491605577925917
-0.4491512452262789
5.88030256341383e-05
-2.048455964907131e-05
-2.100257476534556e-05
-1.518093296404982e-05
-1.534124170485957e-05
0.4491579470058866
-0.4491484701548139
6.392206398206623e-06
-2.36744684966872e-05
-1.309992033673296e-05
-1.844757640667022e-05
-1.441388400882926e-05
-1.27681628473926e-06
2.468565885499019e-06
2.041725707968565e-05
-4.121193165271264e-06
-7.668097680588182e-06
-4.571853360377243e-06
2.073397030951594e-05
-8.232186597553759e-06
-4.562955453077389e-06
-8.094476339828849e-06
-4.438015732959044e-06
-4.258436830362201e-05
-0.1123856400768979
3.860526302324855e-06
-2.602206597776539e-06
0.1123896194562288
3.734666925581109e-05
0.1124037007280148
5.858962712850103e-05
-4.226686396531754e-06
-6.705552936736582e-05
-0.1123972733370344
-4.55399339042632e-06
4.196982123445691e-05
0.1124066309788816
-4.80280188260081e-05
5.970735847072267e-06
-5.315439416581585e-06
0.1123841851637835
5.072118450577534e-05
-0.1123788196833733
6.976730626030262e-06
-3.072129011512371e-06
0.1124084118322788
-4.877733718067303e-05
-3.583108769727839e-06
5.141751462651864e-05
-0.1123802002952754
0.1123881098305723
3.68385387438538e-05
5.067141760253118e-06
2.071418838998352e-05
-0.1123224413939052
1.750173675529995e-06
-1.189004414887058e-06
0.1123242445716262
-2.307853536717072e-05
0.1123135618775386
-2.85831714540636e-05
-1.427990040842542e-06
-0.1123115809194886
2.594067434485425e-05
-1.493672581157082e-06
-2.048687840350283e-05
0.1123145226362539
1.833761174945796e-06
1.859017457128687e-05
-2.433355762125459e-06
0.1123217582118219
-3.14522710825632e-05
-0.1123193306757937
3.179616838420262e-06
-1.033610125412808e-06
0.1123151133692666
1.870263382540219e-05
-1.643934585001012e-06
-3.181683537441111e-05
-0.112319997151527
0.1123235572820036
-2.280873080997838e-05
2.272955528681447e-06
-0.0003259920228563969
2.741897997326402e-05
0.007319280464559014
0.0002962433872529347
-0.007294947852130014
-0.007198551303014157
-0.0003706986081676785
6.502791186437302e-06
0.007222896227464141
0.0003398488517788348
0.0002565871603720216
-0.007179760001964509
-1.973420428772234e-05
-0.0002816712489356252
2.526633605365028e-05
0.007199311958763001
0.02900543763770947
0.0005165692462715507
7.541562170657238e-05
-0.02892669762000637
-5.845301556681935e-05
-0.0001525864765475936
-0.0001459883840752752
-0.0001506316210611947
-0.0001630653884306327
-0.02869457544604291
-0.0002609209785736943
3.417781898297265e-05
0.0008812945640425272
0.02881664685643421
-0.0002607816272727406
-0.0002580084530313062
-0.000257840362296975
-0.0286891335856094
-6.809945713089489e-05
0.0001012973197495173
0.0008662126600903063
0.02880901522100105
-0.0002558556979320625
-0.000253856679061889
-0.000252992620750723
0.02902816531931943
0.000534434504176381
1.987277574523148e-05
-0.02894492230596933
-0.0001623468168589735
-0.0001564591397216135
-0.000156336430452964
-0.0001624165099139629
0.02844364085605441
0.0001556909616628205
1.966332274940475e-05
-0.000177920379496363
-0.02842614582574276
-1.492893522789816e-05
-0.0002804664200870399
0.0285947270090587
-0.02856432530564458
8.174031437593638e-06
0.0002418851827883958
-0.02838861775675007
-0.0003134883808548825
8.950683980784643e-06
0.0002748377246096961
0.02841831345253051
0.0003095125668515888
-0.02841485224179568
-2.079561303291586e-05
-0.000354152992097886
3.091373330169406e-05
0.02844937454677379
-0.0002725574575802307
0.02858485586927201
3.180379535283246e-05
0.0002353469894317449
-2.416760630839851e-05
-0.02855528159017352
-0.02838626404041993
-1.78107354230365e-05
2.648229059815408e-05
0.000271502594250975
0.02841560245778614
0.02844983479639217
0.000159461239178481
5.043713933424766e-06
-0.000182434746409933
-0.02843190926424802
-1.526055402389316e-05
-0.11296544380762
0.1130151806221211
0.0002687630904228692
3.005309035415807e-05
-8.674633858448029e-05
-7.978927829648333e-05
-8.024664802936711e-05
-8.651017633414838e-05
-9.671581006618961e-05
0.02830276452966867
-0.0282951144508897
2.439810436974564e-06
8.662301143284771e-05
0.1129707429262997
2.055967285919715e-05
0.0003656759399702358
-0.1129050336177296
-0.0001159840160205802
-0.0001158708516129543
-0.0001099555547699818
-0.0001101441749128112
0.0001147214211344779
-0.02824438563867282
-6.559158386913314e-06
-0.0001317374387251688
1.005121620819966e-05
0.02825790959843727
-9.481920720143452e-05
0.02829971196723052
9.52913615703961e-06
8.502392913155838e-05
-7.241034095864552e-06
-0.02829220479122485
0.1130210433140618
0.0002717911201045877
-8.76456193576302e-05
-8.10720772240342e-05
-8.091880755383384e-05
-8.772530804840133e-05
0.0003616362078738859
4.050608833127917e-05
-0.1129004538356332
-0.0001143929940083197
-0.0001090118244606707
-0.0001084463559962411
0.0001039993857268955
-0.1125863343015592
1.388619670446789e-05
0.11260111082977
-9.428253285497051e-06
-0.0001232338573507623
-1.133722304127224e-05
-0.0001017404979973709
8.657061587611834e-05
0.1125510191682668
1.476203032679153e-05
0.1125434426462828
-0.0001420097564248708
0.0001208598616854254
-1.051276348630874e-05
-0.1125272857639548
-1.895788272107566e-05
0.112581262615544
-0.0001640320133247813
-0.1125618682217855
2.464498568704761e-05
8.835384505295255e-05
0.1125554381220386
-7.687158344423432e-06
-1.287024692304707e-05
-0.0001679299834211728
-0.1125665017105728
0.112595706777407
-0.0001203464703114971
1.804800694629546e-05
-7.552887209343181e-05
-0.1124752271196545
7.723203740654505e-06
0.1124833173197768
6.494009985558241e-05
-5.22463162337363e-06
-9.324991912920178e-06
7.410937541384518e-05
0.1125129382798917
1.21618254416452e-05
-1.059326544713296e-05
0.112472357057948
8.753347585092933e-05
-0.1124615918190468
1.383770104349241e-05
0.1125067622131759
0.0001034751144842313
-8.649989487352975e-06
-0.1124935008086147
0.1125165773216636
-6.315127691968726e-06
8.908649415879724e-05
-7.166008128165729e-06
-0.1124642657568682
0.1124803006371522
6.380129809329048e-05
1.008770164464076e-05
0.0001249000661980257
0.008372808291471889
-0.0001054443535678999
-0.008162194929693676
0.008360034747304911
0.00014524025403432
0.001374967919633606
-0.008150965343847291
0.000111966185409008
-9.446568812579331e-05
0.008583028044669535
0.001292270366581076
0.0001302982250945284
0.008568799781870839
0.0012835156027749
-0.007634778524843532
-0.0001974043663349698
1.186660343371863e-05
0.0001752159845868027
-8.897328394005544e-06
0.007653997631551218
-0.007497918854034829
0.007510407608255167
2.185051805183581e-06
-0.0001405694789400511
0.0001258921736731312
-2.928202748390027e-05
2.595360497146396e-05
-0.007681577448334323
4.278117981294627e-07
1.266077579008623e-06
-9.497662525956046e-07
-0.007521278126220312
-2.040020901142868e-05
1.824754749618198e-05
-0.007494409840053036
8.72772454474922e-06
-0.0001393275007393717
-6.553213809811922e-06
0.007506786170201357
0.0001247766598563244
-0.007639391371693628
-0.0001991042049823327
2.96226980900881e-06
0.0001767494406741897
0.00765877996202574
-2.902290161489028e-05
1.725190955950952e-06
-0.007676581785893906
-1.292478114301919e-06
2.572353620383793e-05
0.0001666013599956185
0.00834509790632656
-0.008137872631810924
0.008328011490789204
0.001349699711004159
-0.008122950324775972
-0.0001495948208609243
0.008532995930525146
0.0001699897343633907
0.001260596238733058
0.008552124979925302
0.001273010028111043
-0.0001758272049109851
-0.007577808533686261
-3.526038309323098e-05
0.0001559676076621562
0.007594916185339212
3.8012328689456e-05
5.919667964819926e-06
1.885339973553018e-05
-0.007531714253268463
-2.118741344885835e-05
-5.613406480255644e-06
-9.302742987789267e-05
2.608685462799611e-05
0.00748403153274732
8.31344406389736e-05
-0.007475452587608903
-2.477281052896112e-05
-3.682865881232532e-06
3.957002618806105e-06
-0.007476572104480378
-1.816127109560361e-05
1.625431919765641e-05
-0.007452656196392926
-2.531841669777774e-05
-0.0001240242723345831
2.719859507743159e-05
0.00746367426727249
0.0001111260230773999
-2.585293479531843e-05
-5.142546409518673e-06
-0.007615003171109459
5.546069791759927e-06
2.290019753168482e-05
2.928930759217426e-05
0.007525674391496631
-0.0001044682009055529
-0.007515743723151968
-2.777920492637983e-05
1.684581293259898e-05
0.008400710423298817
-0.008187539260845615
0.00840124546202718
3.38232437610977e-05
0.001406951573292983
-0.008187755540439101
-1.506398825185932e-05
3.025353285572411e-05
0.008613957056161128