/*--------------------------------*- C++ -*----------------------------------*\
  =========                 |
  \\      /  F ield         | OpenFOAM: The Open Source CFD Toolbox
   \\    /   O peration     | Website:  https://openfoam.org
    \\  /    A nd           | Version:  7
     \\/     M anipulation  |
\*---------------------------------------------------------------------------*/
FoamFile
{
    version     2.0;
    format      ascii;
    class       volScalarField;
    location    "0";
    object      Phi;
}
// * * * * * * * * * * * * * * * * * * * * * * * * * * * * * * * * * * * * * //

dimensions      [0 2 -1 0 0 0 0];

internalField   nonuniform List<scalar> 
12676
(
29.97893618514018
29.65359862525922
29.65353619464245
29.65349007729576
29.65345547936964
29.65342937975272
29.65340977073662
29.65339530990957
29.65338510680929
29.65337858691535
29.65337540716249
30.1418272092617
30.14285220374374
30.14191167419144
29.99184895784614
30.24540156688484
30.23292199713372
30.14432104216028
30.14393392318311
29.04689822518439
29.04646951639737
29.69555733240681
29.05032595734437
29.6987493710455
29.05008835978401
29.0492754962894
29.68475260684503
29.69463530196438
29.05001970401033
30.1428887549759
29.16608259280226
29.16608812448299
30.14237403033326
29.16600995145708
30.1423514615977
29.16600650322182
30.14192401084675
29.16593877380655
29.16594068630612
30.14224133945019
29.16598965659304
30.14222200259734
29.16598669028053
29.65124561201839
30.24809808492467
29.0865068735723
29.98809418241961
29.64959739795897
30.24587792780565
29.08632997695947
29.08628767090752
30.23389935559123
29.08538982536881
30.24351139487279
29.08613873559675
30.23322189369773
29.08533935441909
29.08531558627877
30.14692478476832
29.16670126200339
30.23232514995012
29.08527169570792
30.14671107360727
29.16666854520647
29.16630458766116
30.14611876243351
29.16657779161322
30.14441178082216
29.16631829128404
30.14594849411779
29.16655185212985
29.16624605279923
30.14306802587075
30.14311134827139
29.16611524380176
29.16612178767785
30.14400861756778
29.16625732079927
29.45444192328418
29.75586646687913
29.7569814162086
29.45245879065192
29.68778547712041
29.66657720501645
29.04968142789911
29.04679574696598
29.66588928819318
29.69067200740642
29.04946761153483
29.76646474230772
29.44805626191
29.75302481088279
29.45155750312144
29.74930604975289
29.04874508325206
29.66125061308654
29.67813023838054
29.68695434347832
29.04676666084726
29.66206186540495
29.04940596828034
29.45487742330214
29.7597432006715
29.7591874423942
29.45553827891256
29.35600123193467
29.05409003297842
29.35652824525493
29.05400914853483
29.35565576095241
29.05372924926455
29.35408478623996
29.05395862960733
29.44494884062461
29.71447065680157
29.70603809254959
29.42224302976005
29.71628921664767
29.42356658877637
29.44315246062563
29.34831754680602
29.0529234582731
29.33143441037829
29.05027485765069
29.33108721724112
29.34879193944137
29.05285188087802
29.44534373352636
29.71822520623613
29.69840869878928
29.42429769209445
29.71794883682545
29.42385877556726
29.44594035729297
29.34800463480984
29.05259842578834
29.32981043048886
29.0502411116728
29.33085629690796
29.34658250203802
29.05280613663184
29.35059387369638
29.05362461461536
29.3533706877092
29.05321665470574
29.56040547855325
29.73560104617733
29.54732564116087
29.44660249218878
29.74189488547715
29.15400902451585
29.25389666338184
29.34943950346371
29.05304675418745
29.05060264194879
29.23587038002426
29.23935428004204
29.3424188005585
29.04965189987012
29.32682859006256
29.05198726824063
29.61029334544779
29.50569085626637
29.5187258030858
29.43789964235938
29.69617263952811
29.70530229654994
29.41847327490963
29.43919581312505
29.71333838024268
29.69242732778729
29.42164881542861
29.44233869016022
29.71060939773979
29.41938904862888
29.34344721046426
29.05250405802536
29.04975811096044
29.32934075571958
29.34593812352418
29.32755344392025
29.05213845499721
29.78508953738073
29.78859881731832
29.77670572386163
29.75369943597238
29.75293909791184
29.77988261062418
29.77325215207427
29.78407665987148
29.76611175458488
29.7478177742027
29.77579166690187
29.74871267791919
29.15316038972955
29.25249920804733
29.55715106585834
29.73202069142846
29.54447671766408
29.04913114020379
29.23505796992155
29.05041427329075
29.23842573596011
29.50421242189269
29.68285705899468
29.60810268823206
29.51681166804771
30.14183892650476
29.49119626004977
29.16592738653325
29.97903603791463
29.97903040759305
29.32852579468797
29.32852764387017
29.81714802993951
30.14287035121242
29.8172740271918
30.14266345302737
29.81728721806921
30.14267884947258
29.81713684772539
29.8166633901902
30.14191772662017
29.81659135881982
30.14200410312827
29.81659568531972
30.1420111514691
29.81665832072162
29.99159400202025
30.32871205637679
30.31588062109253
29.7618363003368
30.26967915546609
30.26908664442717
29.76251900716333
29.74528652622371
29.74960434626189
30.24100608871582
30.24287435664389
29.74932278129073
30.24085105701576
29.74546038584541
29.82182723366022
29.74135294821306
30.14909703684339
30.23199496880202
29.74126879234879
29.82187143664436
30.14903748468744
29.81871797733653
29.81834521375143
30.14436595544188
30.14477520558418
29.81837805260438
30.14483011807206
29.81867775524953
29.81784239762583
29.8180622554127
30.14360202672077
30.14397092179986
29.81808926573411
30.14363271066207
29.81782002696672
29.77369565793137
29.77225073822148
29.67710937523408
29.67581510668341
29.31421825872423
29.3082194936015
29.04780884743719
29.04687622374759
29.30806746922692
29.31442495557522
29.04777883151215
29.7705723109423
29.76864816761395
29.67258440229283
29.67431063173905
29.31175104074427
29.04693628866867
29.22016520158162
29.04661600348845
29.30627682362103
29.04741945930268
29.2213814326789
29.77794687659891
29.77774067107537
29.68073322050436
29.68091936179804
29.16434931423873
29.05708676423587
29.16440495739279
29.05706463675876
29.16341483298616
29.05664196970538
29.16308621835758
29.05675156942783
29.70439229205568
29.70528081687673
29.69636009271968
29.61402093380804
29.6052003240514
29.60591522699838
29.61322887856729
29.14648998826301
29.05106778281787
29.14430886652481
29.05031728624531
29.14428328683589
29.14651859838554
29.05105798461058
29.69863570780682
29.70779381096797
29.70791936430902
29.61626051217802
29.60804243425456
29.60794115217377
29.61637256314286
29.14592830100022
29.05080389053859
29.14359857455405
29.05014802793652
29.14377710006413
29.14572994453115
29.05087017392039
29.16226335372414
29.05651408909866
29.16270353291513
29.05636681642782
29.75110769318285
29.65676567744659
29.75482624011933
29.66013232223003
29.1581687954573
29.05499593117075
29.15904976031609
29.05529075267913
29.04988889566163
29.14299462802618
29.1411684264189
29.14345350186996
29.04941053826432
29.14157206520461
29.05004241949054
29.59555080223613
29.60241151773833
29.69229686108064
29.69430561425888
29.68653170079052
29.60421256605703
29.59714312717013
29.7033700653237
29.69359243408633
29.70221162963238
29.61128356905204
29.60437888079194
29.60344933629656
29.61231723978689
29.14524176125568
29.0507274733427
29.04994188289547
29.14339321396189
29.14316049716858
29.14550135895971
29.05064065784286
29.81715556736551
30.14288259402819
29.81730059365491
30.14269444812824
29.8172961166498
29.81715935738381
30.14268922813247
29.49160568392837
29.49168240642539
29.16608534313791
29.16605398407281
29.49169043896881
29.16605632387555
29.49159887442304
29.49161027282103
29.49169858061325
29.16608719584388
29.16605868713545
29.49169585659162
29.49161257870254
29.16605789855069
29.81703237451557
30.14252407060051
29.8169266665751
30.14237023494627
29.81692391566049
29.81703559754028
30.14251962781359
29.49153525414875
29.16603281122252
29.49147086829561
29.16600937441329
29.49146919446387
29.49153721511298
29.16603213810197
29.81702596136713
30.14249766949955
30.14236268195457
29.81691030538719
29.81691843985925
30.14251078997141
29.81701643999098
29.49153134945502
29.16602879232152
29.16600822046785
29.4914609059211
29.49146586018951
29.16603079289008
29.49152555083553
29.81666683420299
30.14192186286719
29.81660021915409
30.14201832606038
29.81659867922491
29.81666857784866
30.14201591321066
29.49131040591377
29.49126653463205
29.16593971391993
29.16595311557077
29.49126915004322
29.16595420615001
29.49130732721513
29.49131250141235
29.49127189654148
29.16594035937534
29.16595531661019
29.49127096560964
29.49131356144168
29.16595494508075
29.81674283638225
30.14212348520247
29.81683036677125
30.14223808816853
29.8168280125048
29.81674485612357
30.14212069334465
29.49135884316725
29.16597155025498
29.4914121946766
29.16598916025007
29.49141076210381
29.49136007212281
29.16597112202714
29.81673882299106
30.14210690570493
30.14223161796559
29.81681636565931
29.81682332673322
30.14211514563375
29.81673287165918
29.4913563996668
29.16596899611182
29.16598816756391
29.49140366982479
29.4914079088209
29.1659702666621
29.49135277812663
29.65078424446012
29.04665744872428
29.04656498249667
29.59380487643337
29.08785679174182
29.59435588327973
29.08777390420564
29.75845948506744
30.25469897139387
29.75143776894188
30.24784873331318
29.75110450220147
30.25446725735254
29.75902539778232
29.59107095834811
29.08742659019742
29.58541964719736
29.08646738084799
29.58515361696531
29.5915262498594
29.0873582607518
29.93562384866274
30.32008070647559
30.32386500427772
29.76139940570205
30.26443750160812
30.26680226304873
29.93073303933645
29.64591154858497
29.04627219024131
29.04653878546346
29.59344592309054
29.2571153799145
29.0877195676145
29.42610310009895
29.75809074266401
30.2497721227596
30.08612880521406
29.91547762839047
29.75088649364927
30.25311412491865
29.92020127969142
29.59077393357809
29.08644151922101
29.08681365905117
29.41944792027369
29.58497960239345
29.08731355034954
29.42071949019276
29.58050957267711
29.58395213668731
29.08579671518855
29.08625445058475
29.58372775728588
29.5806475500402
29.08577641372304
29.74426876628181
30.23619994667729
29.74198518455729
30.23382406124886
29.74188863049924
30.23613376319056
29.74441797937733
29.57970085702739
29.08567422376283
29.57789082785511
29.08537866670709
29.57781452420703
29.57981913789758
29.08565684903515
29.74517261454967
30.24436425214824
29.91193809096968
30.23962135916483
29.74913853850407
30.24024708583624
29.91049980783713
29.58041917064504
29.08623268606774
29.4174254684052
29.25089234129639
29.58358093743995
29.08576309096459
29.4159145575002
29.74417095176029
30.23352934228366
30.07128890491343
29.90550208221444
29.74182522912414
30.235745604519
29.90714632831691
29.57962331898777
29.08537132442656
29.08549973093337
29.41387318404818
29.57776442457201
29.085645439606
29.41429103124248
29.49447291737768
29.57739210542606
29.16703727448981
29.0853058972325
29.57732563337426
29.4945001387708
29.16702807708959
29.82094877441893
30.14790181540016
29.82025971972968
30.14688832307716
29.82023280968114
29.8209830802082
30.14785546721509
29.49393137234738
29.16685180572727
29.49350761735689
29.16669568977174
29.49349110858883
29.49395245714615
29.16684468613797
29.82174018332945
30.23259740556042
29.90419858970928
30.14874868130373
29.74121358907706
30.14892015670734
29.82161298233367
29.49441931481477
29.08529951898564
29.41317266079963
29.16698346774743
29.57728205532025
29.16700994969345
29.49434102161391
29.82088117608775
30.14681641363884
30.14763071070659
29.82010196705007
29.82017973026551
30.14776415898923
29.82078232407042
29.49388981672973
29.16668468162781
29.16681008380538
29.49341081520905
29.4934585372242
29.16683063826065
29.49382903940881
29.49256303562274
29.49233536512612
29.16631137578191
29.1663733756927
29.4923554042509
29.16638169028022
29.49253846665293
29.81915453973568
29.81966496478913
30.14544826748114
30.14608977470704
29.81964363088014
29.81917162067864
30.1454250001462
29.49283001548564
29.49314265121521
29.16647556046523
29.16657338269446
29.49312958632775
29.49284045952765
29.16647203580847
29.81874528675985
30.14439640620508
30.14488623591619
29.81841156021838
29.81840031885614
29.81875908645994
30.14486739740797
29.49257971672549
29.16631597477477
29.16639017660835
29.49237584798426
29.4923689909248
29.4925881433828
29.16638733177799
29.81912077044593
30.14531134854122
30.14603253239088
29.81953965557953
29.81960150051578
30.14537900164705
29.81907111085832
29.49280936219805
29.16645478251024
29.16656466131608
29.49306589636429
29.49310377948348
29.16646505462668
29.49277899048717
29.49202865090647
29.49216271005026
29.16619591457101
29.16625163918794
29.49217917969894
29.16620054659574
29.49201501822462
29.81763013919857
30.14331592124884
30.14308952397677
29.81743100803665
29.81744664808085
30.14334152910889
29.81761149074303
29.81764274197288
30.14310403944365
29.81746252403277
30.14336755431801
29.81745720797698
29.81764909051801
30.14335883508584
29.49189930152367
29.16615270285449
29.49177800461625
29.16611849526738
29.49178752950161
29.16615657079233
29.49188794174495
29.49190697738993
29.49179719451458
29.16612068773344
29.16616049281541
29.49179395938021
29.49191084212292
29.16615918170436
29.81785753104157
30.14399597694182
30.14366393201527
29.81811678539529
29.81810755782811
29.81786515958312
30.14365346737527
29.49203787209285
29.16625541895575
29.16620525023346
29.49219595621681
29.49219033237039
29.49204251830578
29.16620367681363
29.77491793744289
29.77592707947809
29.67820370144367
29.67910707944867
29.57820270616599
29.4761556211657
29.5770757601564
29.4771001573716
29.57915526678192
29.47855780749033
29.57994171219176
29.47789843983606
29.56411756509649
29.46552898716583
29.55191994760655
29.45389625721797
29.56483441899677
29.46492844550717
29.55126804779836
29.75455043793342
29.73926393331569
29.74045991795041
29.66051210731274
29.6451896508085
29.65933439989958
29.64625890830022
29.74147471448777
29.74231409271764
29.75790277119447
29.66150945611877
29.64791591367421
29.66233355635956
29.64716583183312
29.56325011168657
29.4633438579449
29.45323670441514
29.54955042207763
29.56222551032208
29.46420200291536
29.55047989278279
29.67082689080612
29.68912948781927
29.66945833997887
29.41701254789199
29.41820565710544
29.4057251283973
29.40485296197119
29.6661643045128
29.65448758035376
29.65418163995752
29.40266709174506
29.39509018455872
29.39489694441076
29.40292944420457
29.32709774095681
29.04963556631281
29.3267848374437
29.31679803213529
29.048191991873
29.31702722381364
29.04815865630681
29.31408056603876
29.04686154833475
29.307513150792
29.04766871284284
29.30796630108999
29.31346144523464
29.04775880997051
29.65397813953925
29.65306728474149
29.66465371659194
29.40249232901866
29.39419250990535
29.39476836386762
29.40170664432041
29.6715875747426
29.6711310732808
29.69036363612578
29.41886544541751
29.41846944949208
29.40591884796121
29.40620958116826
29.32563428743359
29.04960514818265
29.32657650907736
29.31664532416089
29.04803628666255
29.3159577059445
29.0481364300388
29.574260039511
29.47505662667693
29.5757650520501
29.4737939691524
29.76400716395273
29.67062352596509
29.66841377054714
29.57254891716017
29.47073519198048
29.47235731679353
29.57061858770451
29.5581306387472
29.45845356779712
29.44936236907492
29.54429730449414
29.4599106563479
29.55639518719549
29.54585433447073
29.75128012517103
29.73788023905521
29.7363016882392
29.65640468710805
29.64395185281763
29.65796825536068
29.64253869642754
29.55967441938117
29.46234751066227
29.45052734475054
29.54847393296861
29.56103635676184
29.46120575658204
29.54724415936894
29.74709152282059
29.73252910199117
29.73452063163558
29.65463383451726
29.63915659065411
29.65264505979698
29.64094284479401
29.23027296925314
29.04907772210789
29.32296817750579
29.31404836909685
29.13701119562184
29.04775780805747
29.22602927345115
29.56857246406739
29.6505856257571
29.64857012348038
29.3995373341018
29.47726846635685
29.39262188071209
29.48208617313913
29.49578767889415
29.68118308093711
29.66567159593754
29.66712779941756
29.41363964332098
29.40243278570846
29.49171758667334
29.6849696706625
29.66657653392955
29.66885039280627
29.41647831748108
29.41445546802001
29.4030120791541
29.40446511130738
29.31215946522333
29.04665866780354
29.30731297234568
29.04762868924395
29.30657014397306
29.31318659436556
29.04747901480739
29.65266519297149
29.65117399396468
29.66410582853441
29.40005517384016
29.39393816316067
29.39299446283677
29.40135792513142
29.04917217114854
29.3252122768829
29.32361342353298
29.31450556055029
29.04799171387078
29.31565185002651
29.0478245354532
29.77733481163683
29.77673091335024
29.6803684433788
29.67982695779919
29.58136143713091
29.4798943334216
29.47975363712748
29.58152571315375
29.58104173246436
29.47908448134259
29.5805689537403
29.47948273999619
29.56583632083465
29.46600849307713
29.55243978006396
29.45520522469456
29.56540611258736
29.46637022465156
29.55283036463335
29.75955659696935
29.74381958646644
29.74398848156786
29.66381498112343
29.64941446996379
29.64926277326471
29.66398304582005
29.74298282085385
29.7586367003946
29.743484202035
29.6634836352313
29.64851369102601
29.66299028165677
29.64896226506356
29.56612611189272
29.46674060356311
29.45542593430945
29.55322540791165
29.4666149263604
29.55309258131303
29.56627384914703
29.2708680671539
29.37625833614718
29.37614329249229
29.27095484040074
29.16424936425863
29.05698152146278
29.16410725476518
29.0570293718448
29.27070683984611
29.3756069130391
29.37592509621453
29.27047417717579
29.26286735721946
29.36499977968747
29.356261855179
29.25604118084673
29.36528803729923
29.26265721754402
29.25623070171535
29.15953651210571
29.05546224335957
29.1555090946711
29.05407486737754
29.15546769801801
29.15958428358683
29.05544405714758
29.2630113537717
29.36558588936371
29.3564379960996
29.25642595314716
29.36548414210173
29.2563594017699
29.26308712345216
29.15944786979783
29.05537013942801
29.15527374717924
29.05404779286982
29.15931986009215
29.15538892783374
29.05541319206287
29.26933118994815
29.37328264540993
29.37403165073224
29.26878843194735
29.16369254856306
29.05692016318825
29.16392240135013
29.05684393462623
29.26978999616085
29.37518802684004
29.37466472197915
29.27016957910397
29.26203545781975
29.36461891736221
29.35522338476293
29.25579062412041
29.36414268056903
29.26238065540599
29.25547742350505
29.15869081461375
29.05506150149927
29.1544335310843
29.05381936445413
29.15470354154591
29.15839260837244
29.05516098769729
29.26161838537723
29.36288681003474
29.35470097054884
29.25465298891249
29.36356693116774
29.2550991571965
29.26112572570757
29.15894321391517
29.05531438613269
29.15512195687421
29.05389560325048
29.15915217739823
29.15493241618767
29.05524499133486
29.53069265323681
29.54081844967174
29.43677724026515
29.44445396008341
29.54022672872246
29.53122887521314
29.43632914213678
29.71545309345887
29.72600825186073
29.72709308861556
29.62329835198769
29.63298996234945
29.63395891149881
29.62242172086315
29.6970451909114
29.69761416219027
29.7066663893794
29.614695781104
29.60703164296967
29.60652516869982
29.61525560710499
29.52183783919163
29.5140710220013
29.42275986159336
29.42824174359326
29.51469034239104
29.42881526011398
29.52115109371435
29.7280149841608
29.72877828969219
29.71698222371937
29.62404418107564
29.63546348427195
29.63478203500166
29.62466226950933
29.52242282067197
29.42970888317796
29.51565722776096
29.42320063488987
29.51521861276931
29.52290806507884
29.42930370909735
29.53004559095535
29.44385629302888
29.53867043877039
29.43515269081274
29.53951200077842
29.43578845756009
29.52928486130558
29.24572763349803
29.34171982176007
29.34855305361264
29.25040409951161
29.25057503408897
29.34193254623702
29.2455734523015
29.14904094425931
29.05192579640489
29.15204129378088
29.0529105583746
29.15200500055824
29.14907306711064
29.05191462670405
29.24164417680105
29.23806029910025
29.33137627174505
29.3364107849413
29.2380181624091
29.33634610731491
29.2416911595689
29.14643348094885
29.05030023665889
29.14415667780883
29.05101076857959
29.14423251556764
29.14634929028084
29.05103895264452
29.24155102241241
29.33602555825847
29.33126048058857
29.23780901947414
29.23793434555024
29.33621759479002
29.24141198986826
29.24583122513033
29.34871147309355
29.25074929504877
29.34214724533823
29.25069037091345
29.34207519519693
29.24588373447861
29.14897798254186
29.15183098849396
29.05288662734456
29.05186204176081
29.1519347015084
29.14888454008483
29.05189333065388
29.53197745247238
29.54129033115322
29.43713482318592
29.44564049217673
29.54164451184722
29.53165660832747
29.43740327020836
29.71836382072631
29.73014706078935
29.73030004759811
29.62577148918785
29.63682352857498
29.63668646262418
29.62589541803108
29.70754322894362
29.69806834071705
29.70716763970767
29.61603704070855
29.60743593622199
29.60773896810143
29.61570226022479
29.523779572078
29.51653297251205
29.42422427487162
29.43051863734152
29.51644513659004
29.43043712724489
29.52387691076732
29.72938662204547
29.72984251172048
29.7175347977277
29.62552466805284
29.63600670005107
29.63641404964088
29.62515517341687
29.52358562673936
29.43003228229177
29.51600737917476
29.42407791699964
29.51626990175644
29.52329527592675
29.43027491748812
29.53219198981419
29.44583962590998
29.54200133705267
29.43767355227251
29.54188171627056
29.43758300198855
29.53229986664875
29.24511197448136
29.34143674779866
29.34761279342825
29.2501773787539
29.24989370348133
29.34108220017468
29.24536851535928
29.14841812404941
29.05163287580741
29.15107090478175
29.05267990317946
29.15131492040884
29.14819796702211
29.05170641951218
29.24071598718311
29.23688607445789
29.33021885494562
29.33460973405867
29.23718130892169
29.33506322066769
29.24038803611985
29.14609719406868
29.05019888724166
29.14405570287327
29.05097336987405
29.14392931370445
29.14623732719356
29.05092658280164
29.24099524668955
29.33576976777579
29.33056713336208
29.23764206498345
29.23743304664254
29.33544940256587
29.24122693552149
29.24480252609588
29.34713968555477
29.24914800366136
29.34015145352625
29.24955128682672
29.34065445919711
29.24443860798521
29.14860530872954
29.15169371485275
29.05274897647302
29.05182065289261
29.15152207612308
29.14876050411432
29.05176889319771
29.26743004722461
29.3724109121055
29.37140889755522
29.26815658844426
29.16176183170325
29.05600899967004
29.16119467878766
29.05619892233967
29.26660256261669
29.36897921998736
29.37026814283902
29.26566712137718
29.25915192635509
29.35900665483921
29.35163028380958
29.25212318959574
29.36016367836222
29.25831257860726
29.25287466919929
29.15764851433348
29.05494569903136
29.15412043547087
29.05350478352713
29.15804607140138
29.15376219738916
29.05481270253339
29.25989711485318
29.36209694048856
29.3525541513194
29.25413580792482
29.36119140242756
29.26055343636826
29.25354424726995
29.15719697965255
29.05449125787069
29.15290123897943
29.05336905920014
29.1566882221255
29.15335659369934
29.05466157805936
29.46212594752567
29.56336415462184
29.46462476781838
29.64228644723993
29.7223072247263
29.62995730960168
29.73889010681728
29.72521401641947
29.6452584255704
29.63257862580697
29.4508172170391
29.44129272646581
29.53625464862394
29.5499330981025
29.44322635999222
29.45301640573037
29.53855049535686
29.75820477067806
29.76125943152479
29.66318481929367
29.66593967507171
29.56604191201659
29.46891495361618
29.56845471372526
29.46688293646605
29.55230714305257
29.44499455823998
29.45682524723586
29.54256572212347
29.55445761761157
29.45501606917523
29.54065234810613
29.74462500436583
29.73031909350848
29.72788296718868
29.64796864952102
29.63717209332714
29.65042714768724
29.63498173413008
29.26068141590436
29.36212159506649
29.26213217211682
29.36411497635
29.05359449462838
29.15053293291564
29.05242409502715
29.15478278689998
29.05265121527431
29.15121173587824
29.05385340003441
29.35292928098617
29.3452161388785
29.24821817326701
29.2551713430347
29.34675543527392
29.35468186791134
29.24933689492667
29.15984399708051
29.05579548401105
29.16055713303301
29.05555667118285
29.26344063405455
29.36753170768457
29.26461596213182
29.36591428575161
29.25632831326102
29.34816174092475
29.35771269095892
29.25128575679694
29.25737337129948
29.35627378410898
29.25035828903108
29.1554848327508
29.05285854371748
29.05430059394971
29.15239363841158
29.15611873805905
29.15183126675553
29.05408838689729
29.14511835507343
29.14760403389203
29.05143853980101
29.14564075933336
29.05163772934745
29.14819938027227
29.05077742295095
29.23287090526768
29.32837182027312
29.32426298019488
29.23662770646751
29.32518287770553
29.23353737997206
29.32941632439147
29.33869219530591
29.24342654377387
29.3331354310453
29.2402160497452
29.34004392441981
29.24440817452863
29.33432305327236
29.24101085264658
29.34128538403564
29.3364238232183
29.24613137509658
29.24530920492165
29.33541893765008
29.24173931316942
29.14387839750929
29.04953604078028
29.14229355125243
29.05031534100189
29.14194721076265
29.14426927914292
29.05018457260717
29.2373291388953
29.32603835070416
29.33127509781364
29.23472907452113
29.23415695070499
29.33038415686142
29.23797457996732
29.14612242699966
29.05182052218694
29.14924398890712
29.05108624131295
29.14874566683351
29.14656376753623
29.05093857941497
29.70092892127552
29.71085045620759
29.61939404870835
29.7031994853638
29.71341901577159
29.61233291229227
29.62170575690964
29.51174525823738
29.42036788918975
29.41523497334424
29.51331479905956
29.41639553126394
29.50707637107608
29.42168429420849
29.43320972242599
29.52681848269378
29.42630411010215
29.52050607631138
29.4349096222606
29.52883968856448
29.42779928247315
29.52215134490913
29.43647209422592
29.53239997331266
29.43044669157042
29.53069933897702
29.42917990187181
29.52366216648974
29.68819046892574
29.68972656884861
29.69789637932547
29.60588496751074
29.59999929921971
29.59862658901496
29.60742763090551
29.71795976106116
29.71578816494691
29.70723712047853
29.6142196825831
29.6257846406224
29.62383518078826
29.61595389214681
29.51477101166204
29.41747533830764
29.42402891344871
29.50955903613265
29.50836625747606
29.42290477584715
29.51611318576707
29.52628846003126
29.44036475705204
29.53394540354882
29.43160140020771
29.53534020248347
29.52504033185274
29.43264645371278
29.71205254673293
29.72475560494168
29.72332990095031
29.62026229960527
29.6318705353493
29.63059559915682
29.62141090006427
29.70091456408649
29.69113890007507
29.69947670817204
29.61012546966775
29.60126049098575
29.60241026051106
29.60884075218626
29.5194633904262
29.51335916778885
29.42758120174046
29.42097588809621
29.51255329840002
29.52036037429594
29.42683159874298
29.52740967109579
29.44141089720755
29.53769775672028
29.43441907783637
29.53658931217132
29.52840733153725
29.43358467661533
29.71993737199016
29.72172566095461
29.70900532497578
29.61897225659975
29.62755795399577
29.62915986467511
29.61753720363928
29.51845787795601
29.42505722690371
29.51065421048344
29.42022299253256
29.51165203297444
29.51734173342312
29.42599090872595
29.24300239628506
29.34437410845305
29.33733925554417
29.24687700062799
29.24754872179283
29.24240263418085
29.3381673065788
29.14765439177115
29.05154790172964
29.15078856326156
29.05239629044513
29.14794376216686
29.15046635809836
29.05145112362469
29.14495036825004
29.04985473445614
29.14261105898456
29.05043482525734
29.14289992641228
29.14462642961793
29.05054319153382
29.23958112587967
29.2365465102658
29.33408731786244
29.32880871684604
29.23616177627684
29.2400101718719
29.33349428076642
29.24354039209841
29.34520318210756
29.24868151378172
29.33957089509691
29.24401850277784
29.24814930643591
29.33891035080869
29.23909962849513
29.33208967202865
29.2352536841793
29.32821325481213
29.23573107035588
29.23856446942673
29.33282893284627
29.14732870136983
29.14969577393238
29.05227460965744
29.05122066696655
29.15010266093798
29.14696553004689
29.05134217341501
29.84926337479156
29.85048272965094
30.13540105256243
30.12072186592373
30.09946386125364
29.8528952736273
29.85350139874032
30.12239259662849
30.12287040376248
29.79639224200833
29.80537269557605
29.80736732793843
30.08706644834551
30.04958008256858
30.05125028773649
30.08443687280712
29.78822436213584
29.80918827742216
29.80949127869487
30.07564999069399
30.06382122351235
30.05185589289312
30.09006606927797
29.75832742063507
29.77818463481976
29.75681675602122
30.0178370289509
30.0313678635199
30.04149103012776
30.01598139707672
29.75324305291545
29.74045203763037
30.00124944894022
29.99613622386075
29.74011304367877
30.00608078696095
30.00650714079317
29.99585548019565
29.7398875884757
29.73887868900615
29.99508668827264
29.75157392623889
30.00574026635655
30.0048064567226
29.759167398176
29.75866330134712
29.77954322631686
30.01856013348977
30.03387242603587
30.04204190599838
30.01887032250902
29.79058391296411
29.78558431190869
29.79534742169331
30.07125057435988
29.95690634906113
30.04840154804835
29.96689164401959
29.91720616351865
29.83404685343789
30.11763698798631
30.10025705253156
30.0055785841429
29.84615850379147
30.13324410677702
29.86004724857072
29.84210272609969
30.10962609717868
30.09766714173198
29.7816532254025
29.80413171326254
29.80114401411851
30.06393175393583
30.05779956100435
30.08280170597216
30.04267847995125
29.76945579037904
29.7526418674024
29.75418879208158
30.00956489124686
29.94018594379488
30.02260635883682
29.92689875708977
29.74073406177539
29.99443985543924
29.73613089586961
29.73390088344724
29.98842580116729
30.00400326676713
29.91167237030804
29.77361063223755
29.75363889302345
29.75614598724898
30.01321245438323
30.03664913703966
30.01515880236416
30.03373241653202
29.73843338421996
29.99855794761409
29.99711797182225
29.73678216960188
29.75096881100293
30.00194849592051
30.00905088974942
29.1571956539642
29.05467051591173
29.15612533171064
29.05431289832286
29.25907950049104
29.35992243688175
29.25731839672048
29.35750709293912
29.05331070831171
29.14979325460415
29.05217670595277
29.15223443874007
29.05190873456598
29.14899187376406
29.05300121333788
29.35100941436338
29.34354065383194