/*--------------------------------*- C++ -*----------------------------------*\
  =========                 |
  \\      /  F ield         | OpenFOAM: The Open Source CFD Toolbox
   \\    /   O peration     | Website:  https://openfoam.org
    \\  /    A nd           | Version:  7
     \\/     M anipulation  |
\*---------------------------------------------------------------------------*/
FoamFile
{
    version     2.0;
    format      ascii;
    class       volVectorField;
    location    "0";
    object      U;
}
// * * * * * * * * * * * * * * * * * * * * * * * * * * * * * * * * * * * * * //

dimensions      [0 1 -1 0 0 0 0];

internalField   nonuniform List<vector> 
12676
(
(1.0006747352091 6.857265092464981e-06 0.0001268444187859282)
(1.000509044503572 2.644328713313445e-06 5.461314839834435e-05)
(1.0004215244433 1.578657041484144e-06 3.930184884242726e-05)
(1.000357747558492 1.108802755301513e-06 2.922449532674667e-05)
(1.000310855018236 8.311900093683616e-07 2.19766966174804e-05)
(1.000276238515239 6.497602471924278e-07 1.654967746992774e-05)
(1.000250781036194 5.280019384311783e-07 1.233563286090564e-05)
(1.000232374911985 4.463231746904418e-07 8.930042655677612e-06)
(1.000219605945866 3.929325209974793e-07 6.054877219120128e-06)
(1.000211551388013 3.606795067608132e-07 3.511941082313814e-06)
(1.000207654970194 3.454810518641088e-07 1.151289827928806e-06)
(1.000909893528528 1.416688083155913e-05 0.0002454016873848991)
(1.001750782388908 6.452451571408271e-05 0.0005859330835076533)
(1.000976967888799 2.086293052782759e-05 0.000256191117109893)
(1.04216267458578 0.002748269629101406 0.04740970682586801)
(1.014945150429954 0.0002182202178363961 0.01460646166985445)
(1.007746993411021 6.782249442119978e-05 0.005349340235024981)
(1.00293202987557 0.0001590824899928574 0.00121840899465648)
(1.002624091015157 0.0001311673370661291 0.001041332705504584)
(1.073180512744377 2.215321116741299e-05 0.002954876242523038)
(1.062642568553907 0.0006538903406688651 0.002419288426379675)
(1.107010551170264 0.01060554822266301 0.09635052302007528)
(1.157288293031561 5.048896062750198e-05 0.008048467069947357)
(1.11111578083477 0.0006906514616006092 0.1000071282072046)
(1.151507504439267 0.000789187693571957 0.007767210730371731)
(1.131522916047107 0.001724637287270624 0.006648558281205238)
(1.093543154287137 0.02263590994709864 0.08220899300636396)
(1.105832471483097 0.01208636662395683 0.09524618754065831)
(1.149822177854997 0.0009012835494706631 0.00768168068374531)
(1.00178065734942 9.461464343044412e-06 0.0006037864142185705)
(1.001849769899273 9.784188269425189e-06 8.872098675487645e-05)
(1.001882645685323 1.415060396978459e-06 9.138699243325445e-05)
(1.001358702910319 5.825325249348996e-06 0.0004094727004695346)
(1.001420804214091 8.771503516451365e-07 6.249980821433281e-05)
(1.001340009718283 3.996523456505553e-05 0.0003992417204374003)
(1.00140070115349 6.120768656885923e-06 6.097536971001279e-05)
(1.000987011564737 3.29457785813007e-06 0.0002598200460663065)
(1.001009761476497 3.316894196738684e-06 3.974550253412866e-05)
(1.001020412069219 4.955796716030406e-07 4.04504562669416e-05)
(1.001249318115593 4.989222553187682e-06 0.0003628584652882413)
(1.00130232762988 7.538744520946486e-07 5.561553408777625e-05)
(1.001233209133469 3.426219271774856e-05 0.0003541843964207861)
(1.001285180979969 5.267174261346334e-06 5.432064206611786e-05)
(1.055482258582052 0.0002841750440001417 0.03572596940785906)
(1.016313829158299 0.000256583361876418 0.01682368233564703)
(1.024083113027498 2.027042727903985e-05 0.001379165725322854)
(1.039563736931622 0.008655952026982777 0.04316552417941722)
(1.053205542960491 0.004734091221684156 0.0338141732667334)
(1.015122957173868 0.003458129593273594 0.01471787528008409)
(1.02191660725992 0.0002754269818155829 0.001199085324899438)
(1.021402913584627 1.703674906916213e-05 0.001179713123401811)
(1.008367824994986 7.740757305814346e-05 0.006010981232930862)
(1.010424852177169 5.681872616893809e-06 0.0004557699657492972)
(1.013898644312063 0.002948087540934681 0.01285355749303667)
(1.019578525382606 0.0002321744882926879 0.001032202843256356)
(1.007939023764127 0.001067375404213534 0.005494872675438308)
(1.009806795278999 7.961224390860979e-05 0.0004143633531605941)
(1.009527614012683 4.928241971680371e-06 0.0004187657781803698)
(1.004946257659008 5.60604352638401e-05 0.002582352572530671)
(1.005586322014145 8.539712579149613e-06 0.0003968480272783546)
(1.007358876356264 0.0009567459106883221 0.004923064062011329)
(1.008989451548341 6.939300613733556e-05 0.0003824051390131973)
(1.004784036462768 0.000371191260197707 0.002436313680521993)
(1.005387493937192 5.686117931035969e-05 0.0003739907025390941)
(1.003182441242382 2.404718667291957e-05 0.0001843986732910808)
(1.004333076309833 4.456531003845372e-05 0.002138404347015994)
(1.00483709762084 6.753811801159398e-06 0.0003268780897590306)
(1.003004081523697 2.362919927325169e-05 0.001271033470096893)
(1.003265316700827 3.542766150482129e-06 0.0001924118614155185)
(1.004201926729993 0.000296631925097988 0.002027188026762207)
(1.004679557145489 4.520754815653561e-05 0.0003095873531667175)
(1.002829310988056 1.980952566040356e-05 0.0001573886133153715)
(1.001926567251991 7.638832658274902e-05 0.0006715908694711009)
(1.00196181786833 1.122625636399497e-05 0.0006934335299515162)
(1.002044265161854 1.155858025084851e-05 0.0001015386963302431)
(1.002083341941836 1.677437094553969e-06 0.0001048093090117503)
(1.002683841262596 1.942481476619387e-05 0.00108309137549362)
(1.002897297823797 2.906729860960403e-06 0.000163714624962808)
(1.208002028789645 0.005967908443069465 0.1198300909543483)
(1.161635595029853 0.01491725376092601 0.1933059820464184)
(1.162997592004003 0.01246688690013755 0.1944907358213876)
(1.203115201683217 0.01031423610496736 0.1176148873829462)
(1.098733081285754 0.00956836342158203 0.08486560218736602)
(1.07476060688288 0.0004224118950737165 0.05497539899965164)
(1.141467426479003 4.560595592367263e-05 0.007004001477278879)
(1.070658541742195 0.0003361109264686762 0.002832326246421745)
(1.073832556216082 0.003803523188447357 0.05417889882184716)
(1.102483201688011 0.0006268394708040156 0.08820458077959636)
(1.136249868619671 0.0007091810619838208 0.006748364691465896)
(1.165881120734099 0.02855547557904271 0.2163617831556077)
(1.192273417698933 0.01698871799540929 0.1122205123315553)
(1.158185726214453 0.02010820054569379 0.190175744978101)
(1.20088831037795 0.01187445544381998 0.1165619422281644)
(1.15374249883318 0.0257732354765875 0.1858545394740578)
(1.118489776461473 0.001515911866654737 0.005759898194777116)
(1.067635091073036 0.01036939584020024 0.04851094238490757)
(1.086530274394689 0.02004197364764906 0.07227930294992538)
(1.097660194521528 0.01088552451400865 0.08386481698742802)
(1.069943520280142 0.0003795087308337744 0.002796827380188108)
(1.068710902344273 0.009590708468746878 0.04953608699640063)
(1.134736367270188 0.0008083316642717827 0.006671230248581793)
(1.209058306514542 0.0046037476682394 0.1202914853280654)
(1.166319980840485 0.001098573364887507 0.1972556675552042)
(1.165672767390508 0.005526508443192267 0.1967332113439091)
(1.210602388595677 0.0006494718093799215 0.1209522941625373)
(1.223939877185744 0.003642612296533892 0.09721761626788671)
(1.249847827206233 7.513272655362709e-05 0.01480093348183842)
(1.225565314708964 0.0005137561190156245 0.09774388765516674)
(1.248084747698586 0.0005337028202292468 0.01472039937402654)
(1.222825978389265 0.004722801532284104 0.09685036658952299)
(1.241274968608253 0.001198913474762074 0.0144051953488401)
(1.217660852839082 0.008169787774874013 0.09508637405382511)
(1.246878969674292 0.0006921133271482508 0.01466599378299771)
(1.1867015571012 0.005421698228741554 0.1027364727927856)
(1.125859237015007 0.01299885203102024 0.1254944458485243)
(1.118133731363253 0.008503262342194841 0.1116693730182222)
(1.133970471459682 0.006829474601651151 0.06520260181633107)
(1.12814845147646 0.009379141479261055 0.1275709656488502)
(1.137288099235464 0.004028558022297924 0.06677469664997768)
(1.182254978504679 0.009322861463636286 0.1006889127456088)
(1.199852733740469 0.003310945783456843 0.08310308482352156)
(1.221118305475052 6.81209940179043e-05 0.01259649098312109)
(1.146130376396634 0.0003492317390780771 0.05403940423566696)
(1.156067968662907 0.0003596248526575711 0.00799051213597448)
(1.14499182286856 0.002463967494922682 0.05364739650147614)
(1.201349813449379 0.0004674532366984628 0.08359788344608071)
(1.219500391955609 0.0004846278966558466 0.01252192593362096)
(1.187667964782497 0.004186807733687551 0.1031661620133537)
(1.130586395504398 0.002510531717430363 0.1296836086393185)
(1.11067873680322 0.003464386994369886 0.09963187303789602)
(1.139104648236682 0.0004425318019741181 0.06760466904735711)
(1.130241046803335 0.004195887343443034 0.1293905808924695)
(1.13801776460361 0.003120525164484973 0.06711070065836357)
(1.18909143165403 0.0005913391107993642 0.1037881167234834)
(1.19883510920586 0.004288265601867219 0.08276135905068391)
(1.213324290216572 0.00108210528958057 0.01223066827156372)
(1.140744794833475 0.00539704712534934 0.05213224386594149)
(1.155247868495034 0.0004645754166286744 0.007951212671715183)
(1.144226988453259 0.003181441896970006 0.05338072247655554)
(1.194143595323839 0.00738027334931216 0.08113206042170648)
(1.218401562459144 0.0006278769226159479 0.01247138648110327)
(1.206141201150613 0.01348658253827882 0.09078193013457111)
(1.238706799791353 0.001381820754808731 0.01428089587772268)
(1.215301524775673 0.009409759790212307 0.09424721336173604)
(1.228683967634279 0.001985944363625177 0.01376631598670813)
(1.198067041468063 0.03832390260921507 0.167210397756355)
(1.13818732942338 0.04235316856998889 0.1676490077001352)
(1.178454442509036 0.03365519381298075 0.1408131547787976)
(1.188718029121854 0.01885338557549946 0.1102987145696449)
(1.14516565302803 0.03531885924114101 0.1764698971848888)
(1.233716057996608 0.01002834875035669 0.0448244257349707)
(1.22494884502765 0.01650404590765753 0.07305525776924986)
(1.202344810037149 0.01497840672957147 0.08924508023273701)
(1.224505155373332 0.002208234812388377 0.0135375074044232)
(1.164175927904561 0.002245130827043977 0.009028355741650748)
(1.140940485925658 0.00968175932688225 0.03771130207177883)
(1.157263707988027 0.01104661438493093 0.04399961203013257)
(1.180384181524986 0.01331394369526422 0.07582441974529322)
(1.140784448220792 0.001368475003559957 0.007195084978563452)
(1.130821190523247 0.00932926328601903 0.04826239551367817)
(1.198308223634494 0.001960413844697462 0.01144311357446748)
(1.121273812156487 0.02607349563932057 0.09866623596207426)
(1.109665563329193 0.01764729996510233 0.06580233086900064)
(1.132302711301823 0.02277583270204225 0.08761576379145872)
(1.169290530316021 0.01677255421451652 0.09403655395723166)
(1.105840848252473 0.02211109379121397 0.09933471194199314)
(1.114633719730791 0.02486463511134533 0.1139146326903168)
(1.124554731448309 0.01178290228293432 0.060340862086415)
(1.172474603589922 0.01517481807882514 0.09576815654783476)
(1.124442895612506 0.0148715208730078 0.1241637006143353)
(1.103033185120234 0.01509887299348133 0.09252146347266586)
(1.132481268403018 0.007793130642462718 0.06447315972868423)
(1.180237275655289 0.01070767901562738 0.09972149795771483)
(1.121063025095383 0.01875194281086983 0.1208407722024765)
(1.12683452802128 0.01077055338972518 0.06157248069777303)
(1.18377485622326 0.01203738099401241 0.07720819101494193)
(1.211008355097785 0.001244146907422809 0.01211665385451574)
(1.143395459332182 0.001249399851635965 0.007340483161512795)
(1.139179275979525 0.006160450233312788 0.05155248650841125)
(1.19201010155791 0.008480006747194365 0.08036159004882205)
(1.133229463615112 0.008523837225448619 0.04924401596591843)
(1.202026443203156 0.001770545617488282 0.01164890218877791)
(1.096652050263312 0.01165408174998991 0.10371315721234)
(1.100348271742676 0.000760442432368042 0.1076963254753085)
(1.089868951002692 0.0105258297358808 0.09167517899549137)
(1.069623471615032 0.0004671150813716782 0.06005705537277613)
(1.068770708711523 0.004203961101646175 0.05918383986065016)
(1.093259113545066 0.0006907985985542639 0.09531630674403242)
(1.084726594524125 0.02472617526534884 0.08843299312013661)
(1.095596792062426 0.01327412233398138 0.1025131055752545)
(1.078991864897737 0.02193563495987979 0.07804813774309152)
(1.063103777861198 0.01143641209792453 0.05298884882638938)
(1.088903338169203 0.01196909215772766 0.09058619597032355)
(1.064084242626774 0.01058125417766724 0.0541071250223529)
(1.22681870288511 0.01098945995733481 0.04346018924345413)
(1.218320463190284 0.01807270734873428 0.07081972864017108)
(1.192234854929569 0.04209611878096817 0.1621938518686008)
(1.134345239925248 0.0459986153209628 0.1622673594865509)
(1.17329385279768 0.03670167056906463 0.1363886097438715)
(1.127967283673469 0.001838541538832764 0.006426512259717093)
(1.137068261390451 0.01035721528098816 0.03645046134305382)
(1.15952682836077 0.002414617793952762 0.008729228313136004)
(1.1528439456132 0.01187235557063531 0.04253791297437291)
(1.10683959426356 0.01877322920762209 0.06360656427526523)
(1.091252727133716 0.02404200499750412 0.07947411012849818)
(1.118058424863161 0.02792372750928785 0.09536805880913581)
(1.128717179562189 0.02441935113027793 0.08469119012584964)
(1.000916096721851 3.278177185231737e-06 0.0002348518932602749)
(1.000863516124686 8.654935161742955e-06 8.998587421367187e-05)
(1.000945639001391 4.439260753390223e-07 3.747377774128988e-05)
(1.000771769941463 4.32420578705083e-06 0.0001548074967070585)
(1.000765769781161 1.145230754466066e-05 0.0001506393411302006)
(1.000780262043037 4.1725743010613e-06 5.391472678926629e-05)
(1.00078583439872 1.417003138965105e-06 5.451077447684606e-05)
(1.001651023914183 2.879944634510785e-05 0.0003783717754292686)
(1.001765613870776 4.675428378159586e-05 0.0005947699715780672)
(1.001799688182076 4.690065018284657e-05 0.0004260252783927337)
(1.001596414172991 5.477677896989931e-05 0.0005134633881409683)
(1.001815249605553 3.398378152570969e-05 0.0004324814460808713)
(1.001609049934338 3.965400783289016e-05 0.0005207438662959507)
(1.001637813237433 3.978377279849866e-05 0.0003730573253411157)
(1.001078070085124 1.309766363873716e-05 0.0002073028343602325)
(1.000982068697633 1.567488576737118e-05 0.0002581010451951391)
(1.000992522399061 1.482782151235074e-05 0.0001849801324250399)
(1.001053128199445 2.50127160976658e-05 0.0002827490885081024)
(1.000997810118394 1.126216166297276e-05 0.0001865885075352921)
(1.001059142589721 1.816935751470432e-05 0.0002859171920806147)
(1.001071962943298 1.792800281957141e-05 0.0002049496294129288)
(1.041983401200986 0.003523746087387203 0.04712458916787426)
(1.028243660572427 0.0004635009749121297 0.05381551557361657)
(1.025223605535502 0.003208525098028886 0.04076711777878148)
(1.032636036596147 0.002386198497028198 0.02137438573540414)
(1.025133536330877 0.0006090813115568432 0.03633302279840575)
(1.024900388662577 0.003019485482437285 0.03570164129906175)
(1.033366224768517 0.0003540775124244037 0.02219149257352523)
(1.013700174234801 0.0006166047066669428 0.006316900827681154)
(1.018856305493575 0.0001456034879176754 0.009890678887030742)
(1.012579780093043 0.0001594691225712695 0.01113990192922413)
(1.013601067436858 0.0009217156805356679 0.01256644672701277)
(1.018519143524843 0.00099768652306052 0.009617122484316674)
(1.012489501463726 0.0007895202588336819 0.01100146967024647)
(1.013913314418532 8.982791295005581e-05 0.006473769916961167)
(1.007022411245951 0.000201928176578246 0.002849967012538373)
(1.008853439621427 4.343760017275461e-05 0.003471504308836839)
(1.006555184596091 9.1575584137468e-05 0.003870440411662617)
(1.007149665755064 0.0002960788257944899 0.00466667663212155)
(1.008747163393406 0.0002989271727775655 0.003405313819138895)
(1.007072150881029 6.796114313339673e-05 0.002883564175472749)
(1.006511161907092 0.0002721232860166649 0.003825840487939537)
(1.003487819152798 0.0001038946312565304 0.001075660322250112)
(1.003054887744858 0.0001163043651434549 0.0008914135567934564)
(1.002967702199442 0.0001159446843189374 0.001244353221819078)
(1.003290344314813 0.0001943045594913523 0.001434236827578812)
(1.003093155678429 8.477708415982871e-05 0.0009105478380063098)
(1.003333592839144 0.0001418335750754311 0.001467170366121379)
(1.003441136817306 0.0001423062656094142 0.001051299258258567)
(1.002467784239371 5.769857668816336e-05 0.0006649418790499561)
(1.002724943281309 9.575027362323005e-05 0.0007606153433816966)
(1.002358180672018 0.0001088700894020484 0.0008950372841203971)
(1.002653691980383 9.546732108675258e-05 0.001061940715593262)
(1.002756526309089 6.969602370339362e-05 0.0007757761758408695)
(1.002382886028002 7.913946845251405e-05 0.0009115342420944345)
(1.002441551532537 7.936955184941766e-05 0.0006528315905649499)
(1.174482869303548 0.01636209999232936 0.2243711280327913)
(1.172742021556946 0.01918821141765417 0.2228415562117829)
(1.203293187198815 0.01465056780157084 0.2097805891224551)
(1.201341245834737 0.01719295228952082 0.2083965161476334)
(1.089978336849814 0.001480334391805372 0.02822652972941112)
(1.07006944129291 0.0001555417741089035 0.02018277176960098)
(1.095522230692206 3.019637482296205e-05 0.004188486759801308)
(1.072637881802254 0.000157986010258145 0.002928872480052581)
(1.069554553455594 0.001089502322055455 0.02000454531648388)
(1.090673709424092 0.0002109186748211341 0.02847036400694155)
(1.094785157110951 0.0002151430681914368 0.004152794362791827)
(1.170731787142943 0.02214981097360599 0.2210194831547271)
(1.168446653618661 0.02526606552951231 0.2188727089474522)
(1.196498974962096 0.02267942942787832 0.2047995727068674)
(1.199079696195365 0.01986297089494533 0.2067461295468331)
(1.081675377926318 0.005223634844163972 0.02513506991213315)
(1.074093505788657 0.0008221858164801978 0.003035586419877635)
(1.066560094286365 0.003626004062642918 0.01334725465087457)
(1.066241227174721 0.0005446955839711028 0.002608137646820503)
(1.063496098289714 0.003744315879239136 0.01781178570707308)
(1.085955150105961 0.0007619755532021206 0.003698905311054103)
(1.072374007058357 0.004068499022793654 0.01496583962790958)
(1.179531980154833 0.001199190335570633 0.22854547279635)
(1.179306849350981 0.003604107861853932 0.2283709831584362)
(1.208658698603727 0.003221625883719431 0.2133811680697392)
(1.208904131272188 0.001072025255032561 0.2135339076319781)
(1.317143062377796 0.0008144769207912694 0.06188262178366042)
(1.324006537306075 9.119075173940277e-05 0.02088137489457488)
(1.317456863976764 0.0002715233028201009 0.0619252116189534)
(1.323683259899918 0.0002729597667828984 0.02086442829083239)
(1.309991466965128 0.003715475869585934 0.06093920144124253)
(1.313737293714104 0.001462816849891334 0.02042599440289954)
(1.30734184313259 0.004368903029045194 0.06057676816517179)
(1.316425460277314 0.001243857963569791 0.02054740511932786)
(1.116040720746165 0.01174703156268194 0.1097652622851724)
(1.117169052174458 0.01011121242634321 0.1108013176936939)
(1.108040306870374 0.009143613078756049 0.09729555450661236)
(1.128902079810312 0.009010094319100029 0.1009062956552994)
(1.116853909669142 0.009445825322999001 0.08743948522320305)
(1.117982219133631 0.00814026599625509 0.08828875762073735)
(1.127661184372821 0.01047278629008726 0.09997419826611972)
(1.1729805598759 0.0005060591204540214 0.02763896527882032)
(1.175504518431072 5.584539802116401e-05 0.009293757469505783)
(1.15537514075633 0.000152153252380644 0.02397592440380343)
(1.157085860707325 0.0001529147856888552 0.008038856136403764)
(1.155175086836356 0.0004582095306989609 0.02394742522972472)
(1.173200431044387 0.0001680646718625359 0.02766998771962951)
(1.175281869243747 0.0001689729005485993 0.009283236353995446)
(1.110970270603066 0.002074740928904125 0.09988256999415755)
(1.120370483320976 0.002283773726616963 0.1136199931455366)
(1.120528878654009 0.000760109414440039 0.1137548013213644)
(1.132409587462204 0.002032280151730288 0.1034373335775613)
(1.121340540277675 0.0006140042462060552 0.09072128654308262)
(1.121182103134722 0.001844778915320902 0.09060974150287014)
(1.132582483340851 0.0006762991603532376 0.1035580923970522)
(1.16848588471654 0.002253800489291172 0.02699032635425894)
(1.169107367795496 0.0008776601052528971 0.008985446302607251)
(1.149661854588484 0.002359442967037171 0.02313677575860457)
(1.1529710264693 0.0006791317023671029 0.007840156928053864)
(1.151107951288237 0.002030664849132733 0.02335453237614594)
(1.166880635185062 0.002623491841611747 0.02675055106509146)
(1.170732644314152 0.0007538935465261226 0.0090657796234295)
(1.30068398436329 0.005793419860279488 0.05963161857647956)
(1.310596856859519 0.001694311669787962 0.02028076251653177)
(1.304247535133551 0.005059519460694176 0.06014370580345105)
(1.306978705353773 0.001940395443723475 0.02010891556404624)
(1.148751399124688 0.04804100164812077 0.1963017140703179)
(1.173745409370861 0.04355250662619592 0.1841818728106244)
(1.152745708204749 0.04372927306513496 0.2015664569864781)
(1.178444458066533 0.03955427603942892 0.1890191958311414)
(1.267489901070752 0.01146334304644583 0.05409847443627165)
(1.273196469800672 0.003845047810949076 0.01825084857658883)
(1.274642331774461 0.01033931798687141 0.05541652577249126)
(1.280488295079985 0.003466845791160412 0.01869344379088938)
(1.146606477951056 0.00196602650150582 0.007721757062372368)
(1.144693793874867 0.005869256409207001 0.02298202725808202)
(1.129943682561056 0.005149993914795936 0.01979991983977664)
(1.148418104572809 0.005449340201637111 0.02367366237636576)
(1.134847223241268 0.001607255154850687 0.006850146041802339)
(1.133220090759491 0.004800361020070198 0.02040086579414006)
(1.150388305967115 0.001824983892952855 0.00795383176921414)
(1.101929221282689 0.02027081804803882 0.07465438692131725)
(1.111102838084914 0.02297302952817285 0.08560946719512004)
(1.101183083772033 0.02560535879143247 0.09390501466600154)
(1.103585441200578 0.02387246068356332 0.09675864564984102)
(1.095711157812999 0.02117218515494121 0.08471123122910698)
(1.113807975929682 0.0213969430210676 0.08820690576536601)
(1.104352679364822 0.0189443360838158 0.07692659035032265)
(1.114748278484608 0.01341235658224807 0.1085506523470291)
(1.104506410601318 0.01358503800833462 0.09397322644643286)
(1.113291578989063 0.01510736669934521 0.1071454294357029)
(1.124628107496385 0.01348446276817859 0.09761369563660463)
(1.115560826975562 0.01076999488891017 0.08644619613610244)
(1.114102445909961 0.01211212299404642 0.08530011821000198)
(1.126236967055564 0.01196406225261733 0.09888044213257215)
(1.162924142254203 0.003390064667302325 0.02614077021641212)
(1.167231826208626 0.001004439773092238 0.008890923878526013)
(1.147911002778682 0.001015444330804244 0.007582704462532833)
(1.14799694866755 0.002694246343830189 0.02288147635604218)
(1.146109393580368 0.003035131901482011 0.02258607453700238)
(1.165028648674648 0.003002097036223526 0.02646846371070164)
(1.165099963794608 0.001134390176852646 0.00878110367430387)
(1.001659931248368 1.742683739166945e-05 0.000381971366815774)
(1.001775619530864 2.831348227524291e-05 0.0006007612092915056)
(1.001831037481008 6.871872946207543e-06 0.000439068939868147)
(1.001621854947759 8.014955411155253e-06 0.0005281635781502635)
(1.001825749902417 2.05778241482909e-05 0.0004368588166088271)
(1.001664414501073 5.816079166964026e-06 0.0003837874763603422)
(1.001617568097128 2.399793177333062e-05 0.0005256752073648358)
(1.001679547790711 1.753599691297057e-05 0.0002304055027378278)
(1.001832975983918 2.856188559408201e-05 0.000259429934988531)
(1.001866087011822 7.081602496346196e-06 9.00413261039832e-05)
(1.001680114249538 8.329465302009329e-06 7.791793763221954e-05)
(1.001849038355835 2.069256344107334e-05 0.0002633625543584579)
(1.001693917340004 6.022273668070887e-06 7.900380721240285e-05)
(1.001665944080884 2.422862823815724e-05 0.0002271701646269398)
(1.001688721253577 1.060734488354709e-05 0.0002325966413966385)
(1.001865337187563 4.176076170422804e-06 0.0002673746243383965)
(1.001877099474368 4.278992436972227e-06 9.093605777051964e-05)
(1.001707911572502 1.200665919252876e-06 8.010885999197263e-05)
(1.00185987816295 1.252560682560867e-05 0.0002660288098458872)
(1.001693338843623 3.533881008497081e-06 0.0002337017590078165)
(1.001703225820626 3.635784464115987e-06 7.973879862243086e-05)
(1.00151442102282 1.482488177558116e-05 0.0003354955727888793)
(1.001482116486869 6.820307612729552e-06 0.0004640533582499881)
(1.001389480057925 4.219506286594406e-06 0.0002972307689503917)
(1.00135555812009 1.745904414738139e-05 0.0004077470721602552)
(1.001386216126781 1.265648591737849e-05 0.0002959725673032189)
(1.001518239211584 4.94482985234872e-06 0.0003370004815757133)
(1.001478452168142 2.043173708933574e-05 0.000461990131738646)
(1.001538825251692 9.024089172297086e-06 0.0002043203793408471)
(1.001555077000775 1.024026257954001e-06 7.058270659379396e-05)
(1.001410330950788 2.563497261110902e-06 0.0001810640802795984)
(1.001417419346959 2.663060369146762e-06 6.224378549738484e-05)
(1.001406986534148 7.704778622923867e-06 0.0001802988237097682)
(1.00154274818117 3.004267473959413e-06 0.0002052357617514089)
(1.001551101100375 3.105126835423856e-06 7.027633691274095e-05)
(1.001506831563683 2.451465321255847e-05 0.0003325097714002349)
(1.001460353650504 4.670710890782603e-05 0.0004518496567718273)
(1.001349303421712 2.888207473439623e-05 0.000404318077399944)
(1.001370085656316 2.897342506560896e-05 0.0002897628251700822)
(1.001379725792393 2.093888199167918e-05 0.0002934708491118892)
(1.001471167589489 3.378202160090207e-05 0.0004578977847074503)
(1.001495567175415 3.38952026963367e-05 0.0003280958001426127)
(1.001531028426221 1.492817418782947e-05 0.0002025033459314386)
(1.001531474251012 7.126487254703095e-06 6.87653704087701e-05)
(1.001410690655739 4.417217668746715e-06 6.173323099260991e-05)
(1.001390464869817 1.764763177932889e-05 0.0001765173258903547)
(1.001400337525239 1.275160426945024e-05 0.0001787760907948388)
(1.001543199440522 5.147354536509373e-06 6.966700425437006e-05)
(1.001519457953016 2.064442534299165e-05 0.0001998164510863312)
(1.00108217199739 7.981013015394647e-06 0.0002087793313346208)
(1.000985230680217 9.668040894782436e-06 0.0002594201231505435)
(1.001003252777342 2.360039803802208e-06 0.0001880734803095813)
(1.001065086948532 3.701187782722284e-06 0.0002888938944950752)
(1.00100138039623 6.975129800066272e-06 0.0001876350700514221)
(1.001084253259538 2.672608409610987e-06 0.0002094742316690153)
(1.001063074186703 1.103783273353675e-05 0.0002879613811604706)
(1.00109105236952 7.960303414276088e-06 0.0001263615238140773)
(1.001003976943491 8.921583929924594e-06 0.0001124299866099274)
(1.001014953659852 2.439336606364287e-06 4.011068959667694e-05)
(1.001091459461797 3.876080834042051e-06 4.37702352092777e-05)
(1.001009186768909 6.816888601485598e-06 0.0001134518572615429)
(1.001097596432804 2.814630737117112e-06 4.424879901027872e-05)
(1.001084931001307 1.08729933950554e-05 0.0001249043714540428)
(1.001095214034209 4.85465832762193e-06 0.0001272709455022482)
(1.001014665919953 1.423994190058987e-06 0.0001144352935793706)
(1.001018559632511 1.495978755436259e-06 4.033645906847402e-05)
(1.00110389803219 5.634549158715216e-07 4.469951214441279e-05)
(1.001012799768558 4.225381937545966e-06 0.0001141375731802018)
(1.001097324982258 1.621811612525245e-06 0.0001277025660660466)
(1.001101777554702 1.70840028416461e-06 4.455280604035613e-05)
(1.001172077196004 9.281742324698313e-06 0.0002334306440183606)
(1.001152011304655 4.283364792595582e-06 0.0003229849093986825)
(1.001275607343999 3.610235279776096e-06 0.0002633116884281486)
(1.00124661098665 1.495613016523167e-05 0.0003614050782150445)
(1.001272809330344 1.083082772775162e-05 0.0002622527477955613)
(1.001174481661024 3.096497050376211e-06 0.0002343149913347398)
(1.001149678005336 1.283010573326773e-05 0.0003217706286517236)
(1.00118725285402 5.649932319470278e-06 0.0001423085876196952)
(1.001197337370707 6.499084556392193e-07 4.973376825525077e-05)
(1.001293400274164 2.19325214329393e-06 0.0001604634226769313)
(1.00129943949363 2.290814033596024e-06 5.540000753162091e-05)
(1.001290541930355 6.593624148392837e-06 0.0001598191192411402)
(1.0011897013363 1.880870099513341e-06 0.0001428481333268721)
(1.001194868609273 1.974758280232114e-06 4.955300383770374e-05)
(1.00116730148762 1.533034317964634e-05 0.0002316322347235168)
(1.001138110330787 2.935175655178396e-05 0.000315578541402729)
(1.001241225503203 2.474703259694177e-05 0.0003585008784309472)
(1.001258973496226 2.480031154803063e-05 0.000256972985385821)
(1.001267244837972 1.791822383421057e-05 0.0002601347746299177)
(1.001145045253462 2.121175342708077e-05 0.0003192963052551035)
(1.00116019627431 2.11822667982445e-05 0.0002288926683636758)
(1.001182394352257 9.330831719853822e-06 0.0001412111068882867)
(1.001182721896503 4.527883419041839e-06 4.862544171607941e-05)
(1.001293700014207 3.799953138016939e-06 5.496758074179013e-05)
(1.001276423659655 1.510254723701631e-05 0.0001565988747474019)
(1.001284860260461 1.091119849824163e-05 0.0001585290329008125)
(1.001189971949767 3.270638949540805e-06 4.918549599951025e-05)
(1.001175193149795 1.288645426601601e-05 0.0001395306760509098)
(1.054843154173423 0.002547074237437889 0.03519841562003377)
(1.06727243561345 1.999733577465673e-05 0.002646086621863073)
(1.064996065818421 0.0003028519748935463 0.002536400834721022)
(1.035235448867521 0.001947221353454997 0.01738632537447249)
(1.040571547645176 4.259918807208705e-05 0.002747866207397373)
(1.036092555831586 0.0002849948263152897 0.01801542127159714)
(1.039556583798542 0.0002941337402782278 0.002653538715715381)
(1.02893006294873 0.001998951676086695 0.01805026463594206)
(1.019409519120556 0.001071509708159793 0.02248364914881803)
(1.02099616708697 0.0001723865854670774 0.01149908625840862)
(1.016180351428621 0.001269244796822757 0.01658597065012176)