/*--------------------------------*- C++ -*----------------------------------*\
  =========                 |
  \\      /  F ield         | OpenFOAM: The Open Source CFD Toolbox
   \\    /   O peration     | Website:  https://openfoam.org
    \\  /    A nd           | Version:  7
     \\/     M anipulation  |
\*---------------------------------------------------------------------------*/
FoamFile
{
    version     2.0;
    format      ascii;
    class       volVectorField;
    location    "0";
    object      grad(Phi);
}
// * * * * * * * * * * * * * * * * * * * * * * * * * * * * * * * * * * * * * //

dimensions      [0 1 -1 0 0 0 0];

internalField   nonuniform List<vector> 
12676
(
(-1.000678739600813 2.903967387155927e-06 -0.0001279371631038289)
(-1.000513705180639 2.725449515968021e-06 -5.311103263068949e-05)
(-1.000421521782181 1.588290941801773e-06 -3.930106466576254e-05)
(-1.000357745567416 1.117650353547983e-06 -2.922407016792526e-05)
(-1.000310853535781 8.394797032304381e-07 -2.197640056488401e-05)
(-1.000276237402101 6.575780070033851e-07 -1.654944272480872e-05)
(-1.000250780184496 5.354078044593187e-07 -1.233544174334817e-05)
(-1.00023237424045 4.533848262206728e-07 -8.929892724842726e-06)
(-1.000219605393634 3.997287424566308e-07 -6.054769328589879e-06)
(-1.000211550908176 3.672961682235347e-07 -3.51187604857099e-06)
(-1.000207654524608 3.520073461348085e-07 -7.675120621543481e-07)
(-1.000909882012183 1.419979155319165e-05 -0.0002453910049541813)
(-1.013898731015799 0.002948391077250501 -0.01285337320826992)
(-1.007358895226513 0.0009569242748903447 -0.004922982711516234)
(-1.00420191957231 0.0002967487648291448 -0.002027150196173293)
(-1.001926551935029 7.645939086035941e-05 -0.0006715750778146388)
(-1.001339994364492 4.001899915553627e-05 -0.0003992283636279615)
(-1.000976954507755 2.090067678449838e-05 -0.000256179267741888)
(-1.041983545947521 0.003524480830585634 -0.04712449811857933)
(-1.097660380112172 0.01088701777760147 -0.0838639604482992)
(-1.098733168922157 0.009569726552020609 -0.0848648104606103)
(-1.105832498922755 0.01208797552540393 -0.09524504406927316)
(-1.14982265587461 0.0009032017787564866 -0.007681572466602952)
(-1.093544244109858 0.02263812013919757 -0.0822066495699178)
(-1.157263944690238 0.01104960257048337 -0.04399745138267872)
(-1.107010448171578 0.01060697886430641 -0.09634942899369973)
(-1.151507907839227 0.0007909994372104666 -0.007767221511788502)
(-1.157288380202593 5.177207439538925e-05 -0.008048532068049395)
(-1.111115502932066 0.0006915428186337928 -0.1000064039560502)
(-1.019578561718221 0.0002325179643961938 -0.001031923743570434)
(-1.014945157100944 0.0002185741814648782 -0.01460644901860681)
(-1.021402916653935 1.746484768722291e-05 -0.001179692943018968)
(-1.007939044243967 0.001067563853373813 -0.005494779600537541)
(-1.00980679380621 7.980526096673235e-05 -0.000414242063668779)
(-1.008367826551377 7.76218052756909e-05 -0.006010974679903308)
(-1.010424852223534 5.908608075847799e-06 -0.0004557613728040676)
(-1.008989447506143 6.957266750331542e-05 -0.0003822948011197913)
(-1.00478403222461 0.0003713191591749265 -0.002436268713104365)
(-1.005387481935732 5.69811751095608e-05 -0.0003739381949921459)
(-1.007746994625962 6.802330657829554e-05 -0.005349334865611453)
(-1.009527613898618 5.137388141351452e-06 -0.0004187590618193822)
(-1.004946257176359 5.619791542147133e-05 -0.002582345789441085)
(-1.00558632036808 8.671024768340464e-06 -0.0003968400805465145)
(-1.004679543626192 4.531480869508656e-05 -0.0003095438143570572)
(-1.002932017349849 0.0001591749265379475 -0.001218385186957531)
(-1.003182425318185 2.412694482909865e-05 -0.0001843724938020927)
(-1.004333075381629 4.468974922534011e-05 -0.002138398654107783)
(-1.004837095740583 6.869984140285861e-06 -0.0003268715247433493)
(-1.003004079791634 2.372527236962183e-05 -0.001271029917003488)
(-1.003265314454802 3.626951429961175e-06 -0.0001924079569053997)
(-1.002044249068801 1.161567312241632e-05 -0.0001015228022318752)
(-1.001961815734337 1.129857713850085e-05 -0.0006934312275425714)
(-1.002083339664123 1.736493489427679e-06 -0.0001048069903475256)
(-1.002624077444725 0.00013125363528146 -0.001041311772420898)
(-1.002829294764583 1.988257621996143e-05 -0.0001573660165415828)
(-1.002683839377924 1.9513901556514e-05 -0.001083088264064754)
(-1.002897295532371 2.983310031405946e-06 -0.0001637112692363493)
(-1.001400686967321 6.161427924234461e-06 -6.09632805157289e-05)
(-1.001750766851418 6.459109791024133e-05 -0.0005859181934721918)
(-1.00184975412694 9.836839554705604e-06 -8.870639837492101e-05)
(-1.001780655184955 9.529085601612438e-06 -0.0006037842615747459)
(-1.001882643451336 1.469447398760611e-06 -9.138488028950713e-05)
(-1.001358700772063 5.880205849417996e-06 -0.0004094708177290532)
(-1.001420802197112 9.195171258174734e-07 -6.249810080873698e-05)
(-1.001233194082261 3.431180649450516e-05 -0.0003541714158496545)
(-1.00100975047697 3.343539816721981e-06 -3.973685507304061e-05)
(-1.001285167484341 5.304133294419704e-06 -5.4309177070896e-05)
(-1.000987009647644 3.334578336532051e-06 -0.0002598183365558549)
(-1.001020410482755 5.251737067019615e-07 -4.04489810302844e-05)
(-1.001249316019381 5.040165493170068e-06 -0.0003628566478708632)
(-1.001302325708218 7.927180466745823e-07 -5.561392835525534e-05)
(-1.053706408961885 0.004199880213799334 -0.03424216610272108)
(-1.015123061956703 0.00345845800133851 -0.01471767259399047)
(-1.021916654328172 0.0002758044772875807 -0.001198767353029152)
(-1.016313837217861 0.0002569652750909378 -0.01682366868504587)
(-1.024083116986098 2.074397328944336e-05 -0.001379142886428767)
(-1.039564093417303 0.00865673761344193 -0.04316518503545742)
(-1.053205788819084 0.004734978767069142 -0.03381385114801389)
(-1.192268467707204 0.01699253684413266 -0.1122114756855841)
(-1.156085533296428 0.02287893593463028 -0.188168424076129)
(-1.153738342047873 0.02577766970871691 -0.1858427454976523)
(-1.200882610865409 0.01187666855709783 -0.1165529054049537)
(-1.057168074274438 0.005245635975982769 -0.03751949533818715)
(-1.069943712177816 0.0003806219032739994 -0.002796349790111871)
(-1.134736803187824 0.0008101356466034074 -0.006670964233293588)
(-1.08653124923289 0.02004386176774898 -0.07227740892480986)
(-1.067635594931842 0.0103706092155491 -0.04851019679537664)
(-1.062642853105381 0.0006548434770757173 -0.00241826334431325)
(-1.118490466016004 0.001517845993221524 -0.005758253259309445)
(-1.175946042491538 0.01365245769885343 -0.2256118039374889)
(-1.207990712992473 0.005968173655692631 -0.1198180878558293)
(-1.160026793307063 0.01746151430032273 -0.1918626707705709)
(-1.203108662140835 0.01031595651555901 -0.1176054172239616)
(-1.162988869699715 0.01246726787021059 -0.1944755818034884)
(-1.059251012303802 0.002193139675283355 -0.03929803823396804)
(-1.05771962825348 0.004648810856750468 -0.03799689318976262)
(-1.073180527475411 2.32308614534527e-05 -0.002954853108760072)
(-1.070658714124655 0.0003372229690161079 -0.002831918152957969)
(-1.13625024559328 0.0007109019539377627 -0.006748211475417749)
(-1.141467485306225 4.691623737648125e-05 -0.007004023778129486)
(-1.102483041023351 0.0006277706153174422 -0.08820411463403821)
(-1.172472158027301 0.01517808278502208 -0.09576341118302567)
(-1.124442216968573 0.01487341609558447 -0.1241613069099974)
(-1.132480952328642 0.007794877259545051 -0.06447216336197716)
(-1.111671061019289 0.01683258216131102 -0.1055343129390873)
(-1.121062789350462 0.01875450664549255 -0.1208381271210558)
(-1.126834532497447 0.0107727282636262 -0.06157105651062161)
(-1.180234176897982 0.01070978129461236 -0.09971702630662911)
(-1.183772472177706 0.01204043433461881 -0.07720481642337873)
(-1.139178982844215 0.00616223228754418 -0.05155177588982288)
(-1.211008885903278 0.001246299342146606 -0.0121173543890502)
(-1.143396122455379 0.001251591025600465 -0.007339888887926336)
(-1.133229471646887 0.008526008129424837 -0.04924287271770887)
(-1.192007054695008 0.008482080560212402 -0.08035840677055986)
(-1.202027403184971 0.001773244400894202 -0.01164930829414435)
(-1.206136380802507 0.01348999227364115 -0.09077535234165129)
(-1.238707303683867 0.001383945270063909 -0.01428200047355322)
(-1.21529588204415 0.009411886275603657 -0.0942404623617147)
(-1.228685087724689 0.001988669947746751 -0.0137674202736573)
(-1.158714813917162 0.03832287394616629 -0.1561285480403689)
(-1.178447305992598 0.03366190135038878 -0.1407921566429976)
(-1.188713043520159 0.01885768523850982 -0.1102892756593565)
(-1.145163047894836 0.0353259088304169 -0.1764540072332336)
(-1.256366453264737 0.0188624503991436 -0.08798260521303462)
(-1.224943663466678 0.01650865948966259 -0.07305045686586915)
(-1.238215754031055 0.00336664719493874 -0.01511097649140763)
(-1.202339983036019 0.01498221400347685 -0.08923830378610174)
(-1.22450634920363 0.002211186061882561 -0.01353857168017807)
(-1.109478271434859 0.02900686178615688 -0.1077474881139197)
(-1.132303024837515 0.02277910934993705 -0.08761142999003645)
(-1.120312157068007 0.02003544383758547 -0.07571910428111112)
(-1.169288177025421 0.01677613343543564 -0.09403146417072307)
(-1.097750049872881 0.01967372359705881 -0.08698311766299349)
(-1.114634190540325 0.02486785315683143 -0.113910906667388)
(-1.124554839583855 0.01178516860809349 -0.06033922491630476)
(-1.161840769248777 0.006703483006044148 -0.02685084912853988)
(-1.131523701487407 0.001726823830303027 -0.006646897404065749)
(-1.126840814369646 0.008502336310607778 -0.03252897111587727)
(-1.180381888442978 0.01331727051689813 -0.07582079610475249)
(-1.140785152762725 0.001370718854781981 -0.007194271371448553)
(-1.130821292044518 0.009331517083335076 -0.04826104138967759)
(-1.198309248612011 0.001963284095060857 -0.0114433515723054)
(-1.186695605296089 0.005422353839367432 -0.1027306751733975)
(-1.125858299827614 0.01300041684939214 -0.1254920043967981)
(-1.133970019022933 0.006831059449472758 -0.0652016649451347)
(-1.108921379209233 0.007701369030280313 -0.09808849440906982)
(-1.182251365246784 0.009324579025774524 -0.1006842533904339)
(-1.128146970957675 0.009380122650704144 -0.1275682125001254)
(-1.137287260527613 0.004029715285437194 -0.06677378917597625)
(-1.198829079241766 0.004289064908613612 -0.08275729725208318)
(-1.140744369444166 0.00539868125354681 -0.05213160535091087)
(-1.213324614211163 0.001084092876118642 -0.01223150248514936)
(-1.15524810845657 0.0004660826115051183 -0.007951481889091326)
(-1.194140024130621 0.007382020528562679 -0.08112875465703094)
(-1.144226183425947 0.00318267573928407 -0.05338015887924965)
(-1.218401415312119 0.0006293683231804442 -0.01247298933653129)
(-1.222814272070009 0.004723263835448054 -0.0968414772632147)
(-1.241275107439834 0.001200883716962914 -0.01440642733745)
(-1.217654333151004 0.0081715151940261 -0.0950793011403215)
(-1.246877470545792 0.0006935787241618308 -0.01466845490862234)
(-1.209045404117781 0.004603608693159917 -0.1202786362549535)
(-1.166097050774855 0.003301185547382204 -0.1970691114123395)
(-1.165661250070487 0.005525414274917853 -0.1967153145125701)
(-1.210596370172374 0.0006499294556343969 -0.1209433111757916)
(-1.223926302659588 0.003642677441024319 -0.09720804272427686)
(-1.249846982873695 7.564962707942707e-05 -0.01480144717716484)
(-1.248082461353746 0.0005349041326830549 -0.01472330095796758)
(-1.225558957111464 0.0005142043398678848 -0.09773668831560128)
(-1.199846052221898 0.003311500220600538 -0.08309879240049413)
(-1.15606818437136 0.0003610456381765391 -0.007990813338094501)
(-1.22111826233984 6.899499611446646e-05 -0.01259684771475234)
(-1.146129977607891 0.0003503715551505097 -0.05403896421537432)
(-1.144990981581033 0.002465108548196538 -0.05364684587424756)
(-1.219500114316718 0.0004859230954808165 -0.01252374594488394)
(-1.201346818752855 0.0004682794928339339 -0.08359466462915124)
(-1.187661451331716 0.004187216416076885 -0.1031600694280468)
(-1.120051931057356 0.003815836974906278 -0.1133466338951792)
(-1.130757520773618 0.0008361703866380899 -0.1298267928144601)
(-1.139104233305262 0.0004436221174414532 -0.06760403258202541)
(-1.130239393851422 0.004196412079556911 -0.129387782631856)
(-1.138016891185241 0.00312158859029391 -0.06710981014785378)
(-1.18908852941245 0.0005921493295377087 -0.1037839318861844)
(-1.084727840234021 0.02472830833567098 -0.08843087653196449)
(-1.09559695602901 0.01327566041123835 -0.1025121388101659)
(-1.078992943664473 0.02193746436118062 -0.07804640675926484)
(-1.063104310807345 0.01143759016841017 -0.05298816379448024)
(-1.088903613113168 0.01197052150315843 -0.09058545979644651)
(-1.053930265493121 0.005809173101206612 -0.04122819558674451)
(-1.096652085491122 0.01165544514056817 -0.1037122379912672)
(-1.100348037966801 0.0007612547277548255 -0.1076957005406339)
(-1.089869127076502 0.01052713047138728 -0.09167450363382132)
(-1.055859825162986 0.002429841206407298 -0.04318516098218264)
(-1.054441069862684 0.00514849270477964 -0.04175305193704694)
(-1.093258976909043 0.0006916592829646811 -0.09531589668961626)
(-1.248776404435041 0.02081917079975081 -0.08544617455414501)
(-1.218317618605087 0.01807767860788661 -0.07081510707395632)
(-1.231182101584352 0.003690533856296798 -0.01465190319761708)
(-1.154197452787352 0.04170964333948841 -0.151170481333563)
(-1.173289026840889 0.03670798301729016 -0.1363687358369904)
(-1.127968090461677 0.001840619059483266 -0.006424518599021747)
(-1.123441779115906 0.009059247990519152 -0.031441485501018)
(-1.152844766916899 0.01187530801930851 -0.04253545488730521)
(-1.157269354746229 0.00720741662622349 -0.0259594712932581)
(-1.117131344526899 0.02139053290607479 -0.07318462455154197)
(-1.091254063879821 0.02404413984201099 -0.07947170992906201)
(-1.106659689085999 0.03102649852539377 -0.1041417922222025)
(-1.128718196687292 0.02442254537848452 -0.08468691970156823)
(-1.000930641698955 7.157093029341848e-06 -0.000101769264835628)
(-1.000839961284466 1.351595935198177e-05 -0.0002058326890498786)
(-1.000945637520368 4.709383570292105e-07 -3.747132922776542e-05)
(-1.000775851406001 4.452621918654372e-06 -0.0001528471682469658)
(-1.00076918940572 1.22431441678797e-05 -0.0001483781727365054)
(-1.000790517863068 1.45140890504124e-06 -5.400360735062396e-05)
(-1.000784869842682 4.272556207131177e-06 -5.329877773230211e-05)
(-1.013560539024378 0.0007820306610773969 -0.006214351411851703)
(-1.016319024432108 0.002331984463678075 -0.01025224271489258)
(-1.013200306124815 0.001941283927987988 -0.01192546129470628)
(-1.011771128476982 0.002166634087837079 -0.009912867239249992)
(-1.018298533114476 0.001263952155393969 -0.009438332823981261)
(-1.013511580982667 0.001698473018697176 -0.007819786274761931)
(-1.012137311969664 0.001664746212724316 -0.01046446124171989)
(-1.006972029651692 0.0003337119242912484 -0.002777297979798175)
(-1.008076611522782 0.0007250370453579918 -0.003775541185608485)
(-1.006337493157103 0.0006097396511452806 -0.003597172023049016)
(-1.006962176077055 0.0006647597221490865 -0.004590340135218494)
(-1.008677406300621 0.0003803264532283761 -0.003360039377290572)
(-1.006826919847602 0.0004527035382081006 -0.002681365384312198)
(-1.006465386883209 0.0004497827901521493 -0.003728808675901)
(-1.003953283792387 0.0001284595269418811 -0.001279560508827109)
(-1.00443475675481 0.0002183677544731417 -0.001492924012983799)
(-1.003709353694815 0.0002392226590217731 -0.001699213383297006)
(-1.004266677799736 0.0002174753200668406 -0.002081741358448257)
(-1.004505767465612 0.0001600801656959407 -0.001533636518901577)
(-1.003895924504862 0.0001755945746353396 -0.001248235597482842)
(-1.003762115325294 0.0001749590170611043 -0.001741404144377189)
(-1.002218800796846 4.815097386060528e-05 -0.0005731419097704135)
(-1.001984632495522 5.563832729068288e-05 -0.0004887243144590685)
(-1.001944048505768 5.54771720012305e-05 -0.0006823841798565749)
(-1.002127503447646 9.100383989047021e-05 -0.0007733635068484376)
(-1.002003057400611 4.037479555539909e-05 -0.0004966328517312583)
(-1.002196876166595 6.628553607591628e-05 -0.0005633893195234909)
(-1.002148241401096 6.609783903560871e-05 -0.0007866718262475258)
(-1.001506820715986 2.456863519705606e-05 -0.0003325001077884522)
(-1.001370070650602 2.902263716976768e-05 -0.0002897497620797227)
(-1.001460338107089 4.676508144524738e-05 -0.0004518359024294005)
(-1.001349292594261 2.893639969141434e-05 -0.0004043086020941431)
(-1.001379715176278 2.098880370444733e-05 -0.0002934615810418244)
(-1.00149555183955 3.394854202847785e-05 -0.0003280822330062648)
(-1.001471156628432 3.384048239988241e-05 -0.0004578879897671195)
(-1.001078060589572 1.313618821804333e-05 -0.0002072947343465525)
(-1.001053114073461 2.505431970949275e-05 -0.0002827369219414463)
(-1.000992509804134 1.486155243125309e-05 -0.0001849696684563969)
(-1.000982059201105 1.571365220404723e-05 -0.0002580927539254146)
(-1.000997801164522 1.129722832513112e-05 -0.000186580853209964)
(-1.001071949507722 1.796540121796201e-05 -0.0002049381617675449)
(-1.001059132629524 1.821187533463081e-05 -0.0002859086357829877)
(-1.042162787063349 0.002748995926503201 -0.04740963818239654)
(-1.028243675300853 0.000464083529320011 -0.05381551184371736)
(-1.028007167200711 0.004139888233384415 -0.05303289646971533)
(-1.032775631915015 0.002441420125889257 -0.0212631833964305)
(-1.025136103870844 0.001837901068074426 -0.0360638856236612)
(-1.024981217789595 0.003045102421496729 -0.03564169146323205)
(-1.033542090298635 0.0003576281935918664 -0.02215082954648166)
(-1.168440088869823 0.02527005269008952 -0.2188575821250348)
(-1.170724356821223 0.02215258220409732 -0.2210037607395374)
(-1.19648981974848 0.02268345486071546 -0.2047795283515989)
(-1.199069710677583 0.01986576957615495 -0.2067253449696265)
(-1.077125383600315 0.007946657992557563 -0.05838133538806602)
(-1.074122990916851 0.01069241378726927 -0.05556004541624062)
(-1.095115978570081 0.01354512014654193 -0.08140827070662346)
(-1.120220998700916 0.007001750470116351 -0.05627968895643231)
(-1.115147416407371 0.00960865497809559 -0.05368077368977967)
(-1.087515292433092 0.006842451533942432 -0.0365153899895185)
(-1.091198584017592 0.005071955807383569 -0.03836313385272938)
(-1.172733270583017 0.01918997877401121 -0.222824460237318)
(-1.174472181258963 0.016363014738205 -0.2243518650666294)
(-1.203279081148186 0.0146515177883087 -0.2097556943887144)
(-1.201329687783153 0.01719476485138531 -0.2083741479406407)
(-1.077933011814609 0.007015237560369187 -0.05911553773208366)
(-1.079758376346191 0.004207836884415777 -0.0607352363468141)
(-1.100476287253313 0.006967897996373143 -0.08644767884654449)
(-1.121564466641743 0.006147587415804755 -0.05693878083058111)
(-1.124566354195061 0.003641916015049571 -0.05836729715645845)
(-1.094400542779009 0.002679206235246818 -0.03989618857107927)
(-1.092183585844918 0.004474199645020247 -0.03884217594565105)
(-1.11474804366517 0.01341409764803853 -0.1085490654317263)
(-1.113291514564138 0.01510935279721464 -0.1071437545329608)
(-1.104506565586471 0.01358682356214989 -0.0939719864605546)
(-1.12462781585372 0.01348650486925351 -0.09761188316318727)
(-1.115560711390628 0.01077166012390221 -0.08644496706830351)
(-1.114102454856269 0.01211396375288954 -0.08529879155270531)
(-1.126236507155428 0.01196586004121508 -0.09887871468164076)
(-1.162924289466411 0.003392176913669877 -0.02614058942120157)
(-1.147997133887015 0.002696111694636577 -0.0228812816783037)
(-1.16723234168517 0.001006463640820477 -0.008891036407392189)
(-1.147911551845719 0.001017465356418686 -0.007582459008487008)
(-1.146109668603154 0.003037111289920032 -0.02258575145294162)
(-1.165028670866842 0.003004062523086885 -0.02646840717893833)
(-1.165100572908327 0.001136544155140598 -0.008781079260856438)
(-1.300679705660395 0.005795200055958113 -0.05963709078892969)
(-1.310600037812821 0.00169596422812985 -0.02028642429340604)
(-1.304242220324683 0.005061172907270757 -0.06014878359953904)
(-1.306982626719093 0.00194209258155634 -0.02011482529987834)
(-1.173737664027282 0.04356226785603493 -0.1841470200050863)
(-1.148751288446408 0.04805014806087713 -0.1962730542956196)
(-1.152743493793126 0.04373952024852269 -0.2015398845039728)
(-1.178435347750275 0.03956514831832545 -0.1889867631067071)
(-1.27320157748661 0.003848656405383607 -0.0182588863453264)
(-1.267487886829629 0.01146748279011961 -0.05410644873114456)
(-1.274639038100155 0.01034292268489173 -0.05542449361804056)
(-1.28049306586736 0.003469998266065698 -0.01870173023877912)
(-1.101184285374784 0.02560798592821534 -0.09390198853238263)
(-1.111103759739432 0.02297572410732531 -0.08560629533722822)
(-1.101930139182663 0.02027308164526544 -0.0746519351129776)
(-1.095712034868883 0.02117443531902961 -0.08470902510829299)
(-1.103586334126676 0.02387513485232975 -0.09675576437544138)
(-1.113808568736367 0.0213996797591576 -0.08820388379864538)
(-1.104353371330466 0.01894663893629939 -0.07692428201112028)
(-1.168144461850727 0.01737057658014635 -0.07039280839419888)
(-1.17627831781495 0.01262442188992484 -0.05169388449107216)
(-1.150631637000254 0.01521755596525447 -0.06005759682062936)
(-1.161367211573842 0.0102171309633703 -0.0453028846807466)
(-1.172574684201581 0.01599151324100793 -0.07243724796708841)
(-1.180945829458905 0.01161401110863499 -0.05318902006588373)
(-1.154537049322005 0.01407937246141046 -0.06184416189095935)
(-1.11604030516814 0.01174852932637534 -0.1097636913700901)
(-1.108040075378418 0.009144873638427373 -0.0972944728827022)
(-1.117168452486968 0.01011248063011961 -0.1107997070858037)
(-1.128901227625539 0.009011418028784243 -0.1009045350368961)
(-1.116853661182868 0.009447312980236358 -0.08743830637002888)
(-1.117981835333994 0.008141583545597053 -0.08828759139694062)
(-1.127660534733285 0.01047434081550291 -0.0999724828950725)
(-1.168485604190013 0.002255470537604986 -0.02699046766166995)
(-1.149661938967301 0.002361190428958692 -0.02313668737947319)
(-1.169107785716138 0.0008795528876896705 -0.008985684096324758)
(-1.152971359492006 0.000680837504243158 -0.007840271127050321)
(-1.151107931154006 0.002032295166351588 -0.02335453212057508)
(-1.16688051062 0.002625308697539023 -0.02675059934491265)
(-1.170732976323649 0.0007556575381236045 -0.009066136860605568)
(-1.309980848502729 0.003716974427436515 -0.06094389843228482)
(-1.313739216231607 0.001464480831965838 -0.02043170405731759)
(-1.307334603057372 0.004370480430585727 -0.06058158939770564)
(-1.316425237821341 0.001245555945877075 -0.0205535611774212)
(-1.179289898013268 0.003601860904414153 -0.228344685748268)
(-1.179522576960706 0.001197741662132461 -0.2285277866953244)
(-1.208634083516967 0.003219084437722335 -0.2133460770449471)
(-1.20889079183735 0.001070468187910671 -0.2135096641617275)
(-1.317108310437224 0.00081304742312949 -0.0618849774606539)
(-1.324001239093459 9.031498821508568e-05 -0.02088577831824748)
(-1.323665924867413 0.0002724828882210514 -0.02087341706079289)
(-1.317441166464301 0.0002701187123700469 -0.06192619383692628)
(-1.172980139776532 0.0005072066581227763 -0.02763912863329517)
(-1.157086007371728 0.0001542165339514046 -0.008039056758335389)
(-1.175504647975097 5.706191685948126e-05 -0.0092938976674414)
(-1.155375039955993 0.0001533820998873658 -0.02397589057465824)
(-1.155174913679746 0.0004594334847748874 -0.02394749429379756)
(-1.175282075690454 0.0001702148012118702 -0.009283650296183211)
(-1.173200206803318 0.0001692280480510176 -0.02766995021481043)
(-1.120528406016803 0.000760938199819752 -0.1137536669834852)
(-1.120369767498492 0.002284507986357379 -0.113618579760124)
(-1.110969885324912 0.002075576987785183 -0.09988169945822259)
(-1.132408670060691 0.002033080371199247 -0.1034357740483709)
(-1.121340210066361 0.0006149696710912208 -0.0907205076490883)
(-1.121181613757456 0.001845679584144901 -0.09060880172553508)
(-1.132581910070551 0.0006772117540785549 -0.1035568451684647)
(-1.01411498480325 0.0006206797670304007 -0.004941435334267974)
(-1.016979559788397 0.0009659409035595248 -0.004376205478888473)
(-1.020728743264944 0.0001496746928465739 -0.001124833718354805)
(-1.015807401132768 0.0001676232913599051 -0.0007767151144968556)
(-1.019237385370587 0.001007277839578358 -0.007545059094425346)
(-1.0153212377556 0.0008226444792251446 -0.003810317577043049)
(-1.014985936394162 9.174245663503961e-05 -0.0007311790296975984)
(-1.013700194554011 0.000616897724298521 -0.00631681944518446)
(-1.014828053139356 0.001080101781442136 -0.0144084784289472)
(-1.018856311262492 0.0001459952448257984 -0.009890662645050025)
(-1.012549599086067 0.0004773235591545439 -0.01109354035139405)
(-1.018519182507432 0.0009980645307923284 -0.009617009819215021)
(-1.012489523840088 0.0007898202708966823 -0.01100141658919265)
(-1.013913317428729 9.013129484401218e-05 -0.006473758120510152)
(-1.014263740288768 0.000489649414673965 -0.005023401220751115)
(-1.020995344976257 0.000118249127769517 -0.001146486451423217)
(-1.019839657675481 0.0001164040343322619 -0.007909058419459639)
(-1.015398371793246 1.070347559400608e-05 -0.0007621633236318578)
(-1.019475610241149 0.0007954389569510326 -0.007688823969384939)
(-1.015149160153799 7.240931400117058e-05 -0.0007434096839640248)
(-1.01449079310122 7.157404036533494e-05 -0.005148949907258148)
(-1.012340296363141 0.0006717137914158634 -0.005452035746925394)
(-1.009390191534967 0.001241953490099537 -0.00706391165377839)
(-1.008757536486636 0.000825068514033312 -0.004240488569352413)
(-1.008131250701752 0.0008154175070009892 -0.005723480168716144)
(-1.009442190180103 0.0004359710150956459 -0.003764568960323953)
(-1.010352418627403 0.00108713070056787 -0.005363095003096598)
(-1.009506682466487 0.001071881641466982 -0.007218775420967594)
(-1.012810603602132 0.0005325169711788714 -0.004328999646138862)
(-1.011665549639113 0.000315701676525218 -0.001563467999791189)
(-1.009587908142096 0.0003925665631060918 -0.002028986810685252)
(-1.010197944294461 5.06767451232471e-05 -0.000440375878933)
(-1.009738175148247 0.00034453637567873 -0.002974118921713068)
(-1.011468808081471 0.0005212074942890044 -0.002580218931123675)
(-1.013547164711681 7.860640404414802e-05 -0.0006393449157329675)
(-1.012460993777319 0.0005296587226217822 -0.005537755306009251)
(-1.009808257006186 0.0001024764632399152 -0.007622277953051049)
(-1.008998512040941 0.0004404127262151755 -0.006690134815000135)
(-1.009643081731177 5.003682286380556e-05 -0.003894466063168233)
(-1.009521836653908 0.0003432166571529713 -0.00381608301557163)
(-1.009746726303229 0.0005068844220703552 -0.007539612906595234)
(-1.012645098745382 7.73471576888685e-05 -0.005669025378034603)
(-1.012938687771379 0.0004199262637709443 -0.00439746386465127)
(-1.013900235639196 9.169669727601393e-06 -0.0006651655139553385)
(-1.010287849818652 3.99285108746553e-05 -0.0004464563276657707)
(-1.009949207749139 3.957584119791311e-05 -0.003077425076083318)
(-1.009821822981536 0.0002712703839447038 -0.003015128603909479)
(-1.013686937428156 6.201754965568194e-05 -0.0006495379938592324)
(-1.013134091329123 6.135350567795523e-05 -0.004502317353018486)
(-1.007329573626118 0.0002055193607714365 -0.001714470860466835)
(-1.008799823273172 0.0003426511523120069 -0.001819948247913373)
(-1.007351630342414 9.433488453404567e-05 -0.000560743696484275)
(-1.009330360698012 4.406040489841058e-05 -0.0004053334070961315)
(-1.008933845328488 0.0003003569100703484 -0.002628225946626585)
(-1.007172769195218 0.0002786094115419365 -0.001655204220598266)
(-1.007514535149464 6.962023286268409e-05 -0.0005808322019457475)
(-1.00596052468624 0.0002562237071902327 -0.002259924026638098)
(-1.005475455069295 0.0004692664378199801 -0.002950964247024076)
(-1.005077314135844 0.0002741144179003352 -0.001799678812487968)
(-1.00486396926404 0.0002728240871356095 -0.002507840001599202)
(-1.005165959358705 0.0002014273014132552 -0.001853288015674372)
(-1.005848721942516 0.0003478356242720108 -0.002188309203548061)
(-1.005574698037152 0.0003459261582820091 -0.003046760764426736)
(-1.006231592450479 0.0001575800441361888 -0.001391425989373773)
(-1.006246505342225 7.245273847208191e-05 -0.0004560308910450451)
(-1.005282178372012 0.0001682597844173051 -0.001105191139852206)
(-1.005485480138171 4.188639987279665e-05 -0.0003851693835066723)
(-1.005376991643046 0.0001236568977999998 -0.001138361652527195)
(-1.006111132542691 0.0002139404286351575 -0.001347134345937769)
(-1.006371391928478 5.337667551604302e-05 -0.0004710308719019901)
(-1.007071206369648 0.0002045140606489404 -0.002843056555957184)
(-1.007704081813779 0.0003364991525479296 -0.005298031684609137)
(-1.00885344039061 4.364423956668257e-05 -0.003471498103989013)
(-1.006597829282355 9.282904570349463e-05 -0.003861154188719676)
(-1.008747168246841 0.0002991280022179094 -0.003405264901942583)
(-1.006553322053365 0.0002755012395504806 -0.003816637920189338)
(-1.007121519903255 6.895066352403329e-05 -0.002876550254350834)
(-1.007436878924109 0.0001260192835790887 -0.001755302922451455)
(-1.009408451466443 3.469780072682136e-05 -0.0004105738445140577)
(-1.00911815069016 3.45119705852859e-05 -0.002716252622782728)
(-1.00768280627615 1.445197996148971e-05 -0.000601770898054879)
(-1.009006850479972 0.000236261022494315 -0.00266432494231718)
(-1.00762610847258 4.271847822469862e-05 -0.0005946919828782441)
(-1.007491381224338 4.251775993949534e-05 -0.001776134594414238)
(-1.006037068056661 0.0001569262021862409 -0.002309139776743253)
(-1.004918561277789 0.0001668606443090257 -0.002557189674596436)
(-1.005677667672853 7.141956754094985e-05 -0.003146012110625467)
(-1.00525717981736 4.150209940675443e-05 -0.001908987501440267)
(-1.005226481325179 0.0001231951270499224 -0.001890186353273859)
(-1.005642963239291 0.0002119300785754668 -0.003112554704408451)
(-1.006075935476961 5.289264888134162e-05 -0.002334201958332587)
(-1.006313979574365 9.651928785457244e-05 -0.00142190242515099)
(-1.005552385235613 2.56376275212192e-05 -0.0003928986160706377)
(-1.006500166697212 1.106532937671149e-05 -0.0004866290791338167)
(-1.005474549142575 2.54986076098423e-05 -0.001172814746063579)
(-1.005441719273552 7.564018565410749e-05 -0.001161184643482695)