/*--------------------------------*- C++ -*----------------------------------*\
  =========                 |
  \\      /  F ield         | OpenFOAM: The Open Source CFD Toolbox
   \\    /   O peration     | Website:  https://openfoam.org
    \\  /    A nd           | Version:  7
     \\/     M anipulation  |
\*---------------------------------------------------------------------------*/
FoamFile
{
    version     2.0;
    format      ascii;
    class       volScalarField;
    location    "0";
    object      mag(grad(Phi));
}
// * * * * * * * * * * * * * * * * * * * * * * * * * * * * * * * * * * * * * //

dimensions      [0 1 -1 0 0 0 0];

internalField   nonuniform List<scalar> 
12676
(
1.000678747783435
1.000513706594017
1.000421522555403
1.00035774599491
1.000310853777539
1.000276237539221
1.000250780260702
1.000232374280415
1.00021960541204
1.000211550914409
1.000207654524964
1.00090991219391
1.01398448655205
1.007371379013136
1.004204009487345
1.001926779925329
1.001340074749177
1.000976987507843
1.043054576862315
1.100913257748385
1.102047273128753
1.109992456391396
1.14984866930025
1.096863451639605
1.158152713214086
1.111246081131033
1.151534375182259
1.157316368371562
1.115607197861177
1.019579110440486
1.015050278582429
1.021403598059859
1.007954586877246
1.00980688192473
1.008385745370141
1.010424955028473
1.008989522328365
1.004787054403423
1.005387553090698
1.007761194523947
1.009527700763769
1.004949576586186
1.005586398709058
1.004679592333664
1.002932770042219
1.003182442551006
1.004335352883437
1.004837148929398
1.003004885411133
1.003265332911523
1.002044254279052
1.001962055750703
1.002083345146462
1.002624626781933
1.002829307308782
1.002684424537768
1.002897308898784
1.001400688841937
1.001750940283833
1.001849758102381
1.00178083718398
1.001882647620166
1.00135878450875
1.00142080414777
1.001233257311631
1.001009751271267
1.001285168971241
1.000987043372701
1.001020411300119
1.001249381782395
1.001302327252975
1.054271009380685
1.015235638526684
1.021917394657984
1.016453106434168
1.024084045848473
1.040495880158971
1.053759094933663
1.19765782286629
1.171522326644304
1.168894424754046
1.206583888543715
1.057846664924718
1.06994743407049
1.134756701056437
1.089117044121078
1.06878742147075
1.062645806500701
1.11850631822344
1.1974707389029
1.213933093687735
1.175915962178907
1.208887052638733
1.179202822135095
1.059982005855431
1.058412106566783
1.073184595607377
1.070662512471047
1.136270506679855
1.141488974349526
1.106005974522025
1.176474379860282
1.13137418564379
1.13434145095172
1.11679603103588
1.127712446571323
1.128566839094086
1.184487609504157
1.186348524516996
1.140361483766503
1.211070148784181
1.143420365961259
1.134330899137107
1.194742749579172
1.202085158708418
1.20962271538677
1.238790408035917
1.218980692735895
1.228763826561548
1.169813996399329
1.187305187378512
1.193967351502117
1.159216262294121
1.25958461237987
1.227230982233428
1.238312533028133
1.205740177818638
1.224583186846423
1.115075313156749
1.13591583779075
1.123046807144419
1.173182933663189
1.101366555763548
1.120715612231713
1.126234122859937
1.16217033083448
1.131544541851271
1.127342292568607
1.182889489927182
1.140808661071004
1.131889128787941
1.198365495201163
1.191146276983559
1.132905188132047
1.13586351492056
1.113277723251339
1.186567552768354
1.135375366837944
1.139252952809253
1.201689780085493
1.141947707407966
1.213386749705582
1.155275566862606
1.196915521785045
1.145475067220733
1.218465420273407
1.226652079816395
1.241359287080135
1.221388112848375
1.246963941409504
1.215022194353124
1.182636657779845
1.182156332759157
1.216622899012257
1.227785920676399
1.249934625954447
1.248169416406425
1.229450073002211
1.202724791614692
1.15609585691129
1.221183236026653
1.147403267376018
1.146249714824089
1.21956451619102
1.20425182838464
1.192140619090329
1.125778996203296
1.138186393390601
1.141108652300868
1.137629067658857
1.13999820857593
1.193609226647837
1.088607365644804
1.100462480879208
1.082034318507669
1.064485481173103
1.092730569519542
1.054752347769778
1.101606950923336
1.105606054651062
1.093768599497611
1.056745396323332
1.055279960075216
1.097406391974512
1.251869400094289
1.220507845799164
1.231274813179056
1.164802115723928
1.181757609933703
1.127987887974651
1.123918176758333
1.153690315669982
1.157582912986799
1.119730318020028
1.094408198650766
1.111981935080745
1.132154186771535
1.00093064689822
1.000839982541499
1.000945638221866
1.000775863087979
1.00076920048019
1.000790519321164
1.000784871271069
1.013579891277847
1.016373408770053
1.01327234519738
1.01182200789455
1.018343057247724
1.013543170592138
1.012192775418896
1.006975914929729
1.008083942481585
1.006344106934963
1.006972858213111
1.008683074356944
1.006830592101088
1.006472394709695
1.003954107424469
1.004435889981873
1.003710820529531
1.004268858962339
1.004506950965652
1.003896715884176
1.00376364113339
1.002218965835727
1.001984753229442
1.001944282413955
1.002127805990346
1.002003181289604
1.002197036714527
1.002148552343811
1.001506876212332
1.00137011299121
1.001460441127966
1.001349374634941
1.001379758396759
1.001495606153547
1.001471261876884
1.001078082138174
1.001053154315024
1.000992527004384
1.000982092597701
1.000997818617128
1.001071970646265
1.001059173623815
1.043244221412627
1.029651096481099
1.029382515199565
1.032997381108897
1.025771910897402
1.025605235770839
1.03377949271902
1.189028787748512
1.191607703404856
1.214099288821994
1.216921603110935
1.078735658857661
1.07561212617533
1.098221190534372
1.121655702000019
1.116480054472294
1.08814966990985
1.091884519780692
1.193868635695628
1.195820392935906
1.221512449969633
1.219388561623181
1.07957558249485
1.081473358948389
1.103888495993721
1.123025676655207
1.126085915868404
1.095130783077318
1.092883213469637
1.120100905488937
1.118537470573911
1.10858021335286
1.12893653043037
1.118956863239879
1.117428705499784
1.13063205866156
1.163222996811212
1.148228305469915
1.167266637479759
1.147937045216859
1.146336212757546
1.165333173350864
1.165134217194274
1.302059086085676
1.310758129641103
1.305638258062761
1.307138846667018
1.188893561305525
1.166388207792966
1.171046127682351
1.194148762264699
1.273338311683541
1.268694034909787
1.275885389833809
1.280634330063146
1.105477355150258
1.114633521210771
1.104641996709627
1.099185534385522
1.108076936352006
1.117500514184004
1.107191351600469
1.170392399222104
1.177481343666811
1.152298421855774
1.162295376074568
1.174918836949693
1.182200071572483
1.156277962838548
1.121486539662566
1.112341068113551
1.122695055919871
1.133437652709822
1.120311032544526
1.121492027753238
1.132131834525769
1.168799460853418
1.149897149936981
1.169142647735533
1.152998217344631
1.151346617470112
1.167190050024357
1.170768323669342
1.311402988443654
1.313898903074217
1.308744816388712
1.316586270268554
1.201198956238139
1.201457403921161
1.227323616221078
1.227601103445957
1.318561607549764
1.324165965811601
1.323830523307958
1.318895808448137
1.173305836941237
1.157113943685646
1.175541388978275
1.155623792506986
1.155423201583336
1.17531875360481
1.173526471804693
1.126287878150915
1.126118473593286
1.115452709891972
1.137124658424662
1.125004202395473
1.124838465074447
1.137306582156308
1.014127213632014
1.016989434184852
1.020729374016757
1.015807711912075
1.01926580942483
1.015328720711446
1.014986203904952
1.013720063533097
1.01493090814553
1.018904327953111
1.012610480433944
1.01856507310347
1.012549599214259
1.013933988446577
1.014276298244682
1.020995995524579
1.019870332014136
1.015398657891506
1.019504914462765
1.015149434941492
1.014503862040522
1.012355200279929
1.009415672586532
1.008766786675665
1.008147827341026
1.009449304009759
1.010367237427765
1.009533061169036
1.01281999515273
1.011666807020149
1.009590023307837
1.010198041552152
1.009742613956838
1.011472233384949
1.013547369409035
1.012476276854301
1.009837029198519
1.009020787282425
1.009650593946851
1.009529107538924
1.009775001658631
1.012660969843493
1.01294832010844
1.01390045387033
1.010287949254436
1.009953897138111
1.009826360696665
1.013687147426787
1.01314409717428
1.007331053601702
1.008801523124059
1.007351790828846
1.009330443047899
1.008937313233697
1.007174167824304
1.007514704979766
1.005963095811278
1.005479894949562
1.005078962755197
1.004867135704785
1.005167688051567
1.00585116250874
1.005579373171791
1.006232566826965
1.00624661128722
1.005282799967844
1.005485554783664
1.005377643715784
1.006112057162516
1.006371503576693
1.007075240235505
1.007718065172776
1.008859414086956
1.006605238931752
1.00875296022001
1.00656059567351
1.007125630270525
1.007438415976659
1.009408535562635
1.009121806954797
1.0076829860634
1.009010395765169
1.007626284869057
1.007492947718833
1.006039730356801
1.004921828732031
1.005682590954454
1.005258993259974
1.00522826598683
1.005647802376084
1.006078644660673
1.006314988763099
1.005552462320908
1.006500284397286
1.00547523346827
1.005442392644636
1.006456918449083
1.006356833228312
1.004086016171584
1.004597035161657
1.004091161633465
1.004757332088984
1.004672497190128
1.004025404125431
1.004153437411204
1.003488392278078
1.003291377087214
1.0030552770072
1.00296847200286
1.003093562954082
1.003441685165505
1.003334667749725
1.003594495338952
1.003598268885497
1.003139560171241
1.003223455598971
1.003179647770212
1.003545394880307
1.003648602144168
1.003993125596154
1.004312999762453
1.004579867987184
1.003817678341755
1.004555350857204
1.00379952730529
1.004012868257956
1.004127240734468
1.004810307699087
1.004749960458486
1.00421724482781
1.004723912103808
1.004195801869612
1.004148104445546
1.00352010002111
1.002992666966133
1.003378882599595
1.003132633936079
1.003119521257926
1.003364039428543
1.003536129194048
1.003627840059191
1.003251275755989
1.003700078892116
1.003220572530523
1.003206835994645
1.003682790235789
1.003644700407056
1.002267078363289
1.002024281616112
1.002063643989681
1.002268269010764
1.002043346747742
1.002244332828742
1.002291431261094
1.002233788863528
1.001956100404797
1.002021899974443
1.002169639861608
1.002015627269232
1.002162571871865
1.002241263217435
1.002282456125101
1.002076742577274
1.002062716251985
1.002314990452819
1.002056225043798
1.002307092221686
1.002290211076172
1.002467995829476
1.002358571821457
1.002725221927167
1.002654249326002
1.002756818642141
1.002441752253425
1.002383293482655
1.002525996132704
1.002527567602835
1.002794251607148
1.002862977841965
1.002827219494522
1.0024986989557
1.002555403572592
1.002485751524756
1.002408447805176
1.002674303465411
1.00278902009648
1.002778217685107
1.00240001390462
1.002494709432088
1.002544468718911
1.002583749354254
1.002885790245882
1.002860828846367
1.002849552949966
1.002574242841145
1.002553789552738
1.001531038310746
1.001390465981049
1.00153146183206
1.001410682458286
1.001400343197066
1.001519463022486
1.001543191334509
1.0016510847918
1.00159653167062
1.001799764220848
1.001765780564323
1.001815332469333
1.001637867944099
1.001609175078519
1.001679563482771
1.001680101976028
1.001832994271845
1.001866079864711
1.001849062044569
1.00166595468374
1.001693909558743
1.001659997672693
1.001775793545904
1.001831131528246
1.001621992057814
1.001825838768411
1.001617699777918
1.001664485863257
1.001688741768418
1.001877096898638
1.001865370661944
1.001707912601714
1.001859906908328
1.001703222468445
1.001693363934866
1.00151447085836
1.001355634845432
1.00148222185834
1.001389522075096
1.001386253615539
1.00147855241376
1.001518293773357
1.001538839741643
1.001417415228796
1.001555077386753
1.00141034526217
1.001406996599457
1.001551097258574
1.001542767087982
1.00116731845813
1.001138145851945
1.001258992201302
1.001241279374868
1.00126726847656
1.001160208604681
1.001145086067676
1.001091051368555
1.001003971460801
1.001091448506089
1.001014946580507
1.001009184789293
1.001084926164067
1.001097588900635
1.001182394834252
1.001276421978122
1.001182710345396
1.0012936919046
1.001284862896787
1.00117518954988
1.00118996406965
1.001082188134467
1.000985258666957
1.001003268650546
1.001065126666451
1.00100139265017
1.001063109730177
1.001084273292854
1.001095216749431
1.001018555708993
1.001014670770656
1.001103897326314
1.001012801236683
1.001101773438835
1.00109733133392
1.001172098523806
1.001246670007655
1.001152061372947
1.001275639929329
1.00127283758371
1.001149723650701
1.001174507114788
1.001187257292598
1.001299435260183
1.001197336789051
1.001293411151034
1.001290548745867
1.001194864384705
1.001189709634898
1.055694114755186
1.06727572839124
1.064999281242993
1.035580196408587
1.040830762593968
1.039806794701908
1.036454645667415
1.028661067009601
1.018069914172823
1.015785137561742
1.018508803433866
1.020402153811831
1.018844095035847
1.022178356902783
1.030677995902741
1.021092717301111
1.023282875809509
1.027415000664586
1.021513158455216
1.026603824951662
1.033938812208486
1.029090405320036
1.019717853691859
1.01631653113413
1.021060941451128
1.020662717996063
1.019539011448285
1.029739921624035
1.031145947571489
1.035322874162377
1.023599629733075
1.022226161962058
1.021795132832582
1.034485810717793
1.031866761006192
1.039983038374684
1.02650532474266
1.02696520057907
1.032351736607195
1.02353366874349
1.02462981183952
1.030779124170831
1.043601484720707
1.064355170918141
1.057805674431469
1.035010306590686
1.041651340507429
1.039248001748579
1.039136296271856
1.23779442608266
1.26248142330363
1.240834353150608
1.25925380857273
1.186122401386779
1.182878943659101
1.21090773274118
1.207331947646242
1.234347392999801
1.251453680718021
1.255586141270218
1.230473147140434
1.208729937652459
1.222384240930519
1.183557167464353
1.200981892829908
1.186679971202743
1.226093587962652
1.205249081825956
1.17386064322748
1.158060408041704
1.155943388320422
1.192323990908507
1.175610502142142
1.19487920362702
1.173300946089628
1.15357028626856
1.150937377676138
1.165970676921618
1.189443084879969
1.167813554434415
1.170704291127334
1.186225993345254
1.211837735370028
1.232314343679157
1.203952905223777
1.191959307021031
1.214587026694412
1.189477306625255
1.229397536427876
1.072724507848997
1.069901745383379
1.055752686768336
1.080752790032355
1.065383386670062
1.062940777032879
1.084107052080927
1.083363246395668
1.067174834992366
1.091103954924966
1.067293171597664
1.064648989867511
1.086844560923797
1.0874256487421
1.126750857992037
1.129011505042185
1.121352185187231
1.091180358947381
1.100015579247712
1.095061573519781
1.095907252161488
1.107110330372556
1.074376812246968
1.093148329413962
1.080740865739062
1.114398725450599
1.086663715868454
1.085174930527447
1.054928945047182
1.052122702038482
1.060276981365051
1.079421870417236
1.058675532435465
1.061977241280036
1.06636553631889
1.081980366385457
1.066244810909048
1.061427542448591
1.073557403925983
1.063652138721216
1.072486551956996
1.085962086328887
1.111539381757339
1.126689456105636
1.119176748888159
1.089634141519173
1.097271361525824
1.094729824103109
1.094267350197387
1.245762364849398
1.265290678875436
1.243485176009824
1.267699868340158
1.198826428301056
1.223303661698479
1.224770921572743
1.247678637496408
1.271374028766755
1.269723726286903
1.249244381649641
1.220811226466627
1.240408759035446
1.212552676245346
1.198917084394262
1.197607094633465
1.238896573305529
1.222245970618878
1.177694711248569
1.1599256418298
1.161543544874095
1.19905228742866
1.177640059483022
1.197118859480096
1.179396431995751
1.219062594954937
1.234860536483391
1.210873432337128
1.194135747399412
1.2169913042103
1.19601566125427
1.237050555274645
1.180445637697643
1.164054307075088
1.162918428085724
1.200687721201723
1.182113964238867
1.180885869062858
1.202032318457888
1.075589186953772
1.060414137604484
1.076165798615787
1.087485204457579
1.068369311488654
1.067868098309624
1.088161876787391
1.073484904077467
1.059694872840341
1.075205326317487
1.087034099650569
1.066042173246106
1.067534665623014
1.085006327875555
1.090344847842511
1.070259782061051
1.072641980485664
1.095530262296392
1.069742262498075
1.094793181891412
1.091045250752052
1.089877783701766
1.067855813447417
1.07228081760248
1.092087562392633
1.069397903952097
1.087776931878491
1.09430144769021
1.128177226176536
1.139641698804916
1.131359427541319
1.098428933685918
1.101110807410106
1.096098137545399
1.103570404566624
1.140383279429233
1.133106457139789
1.132060471161857
1.098946153786216
1.104932039744742
1.104115623346893
1.099721020819645
1.081896251397568
1.105583581800487
1.082531051775148
1.127768311114977
1.126760816283205
1.095629902365987
1.096377907131898
1.150975278321236
1.164791183692094
1.158209230532198
1.179449827445868
1.167590090929346
1.160870755758476
1.148468039591588
1.129643668396671
1.143967616593312
1.142052927399098
1.141920000979974
1.158699007487006
1.156614001985935
1.143800711599377
1.138475436789314
1.12714242104973
1.132619304056317
1.148813915043041
1.125510282304475
1.146897326333684
1.140289462375497
1.107009857669341
1.10528256850556
1.114877094778979
1.127043810971401
1.11384944628334
1.115726158328955
1.124953074074355
1.139911643689763
1.137541927232711
1.125580053918377
1.139816002651356
1.151680363345967
1.154275887746564
1.137486421284914
1.136446738303308
1.142370800538142
1.13069496774873
1.121677664518172
1.123688936553347
1.144750741980785
1.134201228689951
1.15323456075553
1.182117932957142
1.17234270101549
1.165396579763682
1.170105030622231
1.163264623339922
1.155249971857587
1.175701006749263
1.166412020609454
1.18946984326971
1.194075410691068
1.169201113112905
1.19730881507663
1.172813818709376
1.159460125289051
1.145034988183888
1.138565081741543
1.155963416816482
1.14318155929341
1.153962230528134
1.161526268393789
1.182805860668106
1.187478051595518
1.208268427807349
1.208423220822606
1.205650042126679
1.185157641799118
1.185101023714333
1.160853500913199
1.14579550044025
1.141867452866716
1.160075046535804
1.144217075835971
1.158218790526611
1.162739089522704
1.157141368517907
1.149227162047206
1.136555679747395
1.13880762831408
1.141106773801903
1.151718289555606
1.154564706001432
1.178291321970998
1.192264305651633
1.173934132831006
1.202762139558332
1.171706085278738
1.200200265529774
1.18059312220076
1.180157690484228
1.199383505098772
1.205432896042762
1.179436290288902
1.202692886088431
1.177203959561365
1.182423634799482
1.292084531242862
1.280993385556855
1.277611587903092
1.295584167438239
1.297978111163592
1.29833905667828
1.293361301820988
1.303010883338976
1.288096968604183
1.269417656154643
1.27376257933948
1.283589634131509
1.252520477672297
1.236987166940813
1.21311291436529
1.2190119125232
1.240884846350907
1.222629613418033
1.24847849950073
1.26420885210659
1.271602562042852
1.23538622878521
1.235847036709628
1.232474983727104
1.267440168755469
1.268335256213656
1.256109485232092
1.247404812901649
1.216227062296901
1.22870113472586
1.244350246179011
1.225853510343729
1.259269503618907
1.260536315476795
1.260432000365416
1.225472783334904
1.232511395427015
1.229176811070178
1.256396807933146
1.264620629077462
1.210267033677454
1.229705376696411
1.216067993842855
1.235985053335174
1.151244621751484
1.137786399557438
1.153208928639754
1.155381410644521
1.141463147797023
1.174461708964254
1.157321188361997
1.203101920365012
1.180576016614634
1.16763102326228
1.192420163125852
1.185436725182792
1.208627343146932
1.172141615362602
1.175346638683404
1.179289459591743
1.198966515751769
1.203356518209898
1.221355666747209
1.246829074931238
1.226150040923774
1.241682988562179
1.197108282687836
1.189897520895863
1.218250006074526
1.180098930045503
1.201380119359286
1.213670872920495
1.176296170352356
1.148042039049301
1.162745790413116
1.144883403335209
1.178743387467157
1.16462240686835
1.182662481001532
1.161125868270898
1.246392590117604
1.266568556094745
1.25307021907551
1.216594403215695
1.191580765343415
1.200229552772989
1.233362397080088
1.196733539242277
1.222461789668039
1.205608235006214
1.234569830768017
1.206187513099596
1.209224336424128
1.240880621129344
1.214834668785018
1.211719970236984
1.244714048770593
1.282360409393657
1.293083179739051
1.288169861554682
1.287198162931421
1.272867223585699
1.264544566772864
1.278526415486664
1.259107977005109
1.23892819487211
1.201448940572137
1.232633872970224
1.214981764901106
1.243957155766366
1.227800374521064
1.210520070465086
1.246600493528315
1.219947453518194
1.25573973846137
1.221342610745094
1.251761802867625
1.216765272972114
1.250511706203233
1.125908881829269
1.125792320535844
1.138680832973849
1.117989580794686
1.129063692377724
1.129137927650802
1.142322656086175
1.161344657454505
1.150655423558343
1.144804544935331
1.139432286181747
1.165622713948854
1.154635867040307
1.148573434138765
1.111755587315038
1.130486581423477
1.118020620182874
1.126157581982233
1.120958017939371
1.114511757665532
1.133811260532728
1.142697659338169
1.169567724461183
1.161702168082474
1.155274886363497
1.145709519298083
1.158318071981447
1.152063692691024
1.110513972035964
1.103400409161096
1.112782151028038
1.120179207225482
1.111799666306346
1.109579066756642
1.122664414400147
1.134943055734821
1.123247089372681
1.132115935455751
1.132146412255854
1.148823980190254
1.134929886909481
1.145704713421495
1.129055833816611
1.123697194041055
1.139754890157751
1.119476591828299
1.117087013058181
1.131737609895506
1.136901599499289
1.164214108954089
1.182355638392998
1.184837821610448
1.16642419304084
1.189753972674531
1.18720539262533
1.16852433416335
1.130129589145476
1.144940248231072
1.146635051230023
1.148675585873004
1.134869792928484
1.133414482401248
1.150418111192302
1.141605092593597
1.136736186742165
1.123266042552511
1.14524627616533
1.126354445506162
1.130547546313554
1.14023925703791
1.166117387119159
1.179082505671457
1.163332032035455
1.190487423069894
1.169621680787365
1.186532621345204
1.159955364309152
1.152133300542686
1.137958533173296
1.139284605031472
1.157136377577904
1.136466929556036
1.155313497175165
1.153918396152237
1.148619918214316
1.129229918816803
1.146485076601136
1.13628185029768
1.133528315270226
1.151725428983244
1.14348940521841
1.170344631643104
1.194259535516439
1.195708028885593
1.176129524631005
1.173935676515163
1.191652821526277
1.172494603690533
1.159877318522847
1.18988997701552
1.17865106044385
1.171419753081911
1.177458369859094
1.170279022251055
1.160960928881109
1.134238303367277
1.145658237473843
1.14712765798079
1.146903879858616
1.160535602510335
1.162128527635231
1.145460976591308
1.143284273912665
1.128586638801928
1.150504254456955
1.137187856636667
1.12984455544949
1.141891453538247
1.151972187515112
1.123727422139521
1.124584744808105
1.114056549941322
1.134551457095118
1.123338800697336
1.122500899820942
1.135475192265069
1.158566973167473
1.188365895243187
1.174309887310623
1.167272532628408
1.17601310830097
1.157025950530125
1.168898228575776
1.149414577592139
1.148378821010729
1.136318260634246
1.148132511749825
1.164601102173742
1.163482305599495
1.149149816443671
1.144470797601921
1.154255450593899
1.13831689278273
1.131808548713855
1.130917935718305
1.153221434600016
1.145453762427819
1.185846776778995
1.200381093647502
1.180214368357678
1.209930605210772
1.17902661405402
1.208581571623408
1.187070677894687
1.164922518132384
1.146670455345031
1.157726557770552
1.143326755051727
1.148091475180803
1.163345278095342
1.159256342598362
1.189007093115141
1.189563997182255
1.210560633574885
1.215384832695823
1.187221944840878
1.212538063171209
1.191367498310149
1.17016683178641
1.154244087701822
1.153602074896023
1.173290606976197
1.152580442553661
1.171297044221284
1.172149294699677
1.184363487661174
1.198792142465847
1.175892436474478
1.205006102994661
1.182614606083072
1.177587837818059
1.206942782914187
1.166263013751591
1.161633254607752
1.144501605145336
1.150303635840296
1.149301472468984
1.160557219105454
1.167371314861946
1.190520606178531
1.215587328722919
1.21707475883822
1.194157325805892
1.214210747684869
1.191769101301613
1.19289633417789
1.301224543476063
1.283932824338607
1.286450629078976
1.298623261672093
1.313632047308807
1.320676638102958
1.315447061991176
1.318840291499192
1.30340604666859
1.2902838288286
1.288563297831192
1.305181890383415
1.266372554051254
1.255857786382293
1.225213601215353
1.236620144050234
1.254281602032294
1.235136782937639
1.267998553415388
1.272666611636768
1.274446017333217
1.237927708027707
1.243569299953728
1.270252954652608
1.240114526353315
1.276885697638928
1.264384405345498
1.250067677971453
1.223462075512148
1.231188469336803
1.252355353764775
1.262021747313962
1.233329643256207
1.27469720040916
1.280617133950243
1.243473807180971
1.245433790378293
1.241959603054446
1.276357830530804
1.278938227985038
1.200681407849125
1.199894008927913
1.226768883388958
1.225922563727535
1.251952876491267
1.274522964303734
1.274214984182354
1.252246856838609
1.251366513935699
1.272661913719179
1.250469472424767
1.273601990587255
1.224207301943062
1.241596464287632
1.199952049990896
1.215827742600298
1.223374947175816
1.242470347473236
1.2007186256108
1.182876101414223
1.166288126977354
1.166067428709995
1.204392491675583
1.184520593221781
1.184283297605522
1.204649826918215
1.181428254884422
1.164955005026973
1.16562454000504
1.20387649523836
1.183085893255512
1.203092765981594
1.183807011986831
1.224754285274392
1.243330081036744
1.216358475634382
1.201476154218355
1.243043717669691
1.201224244782039
1.225027278952812
1.31789195033278
1.322108906004942
1.316861500915419
1.323152954798922
1.308227160934326
1.293556317188668
1.293236720416609
1.308555758152754
1.307572174180408
1.291624381378177
1.306565032186431
1.292600994180042
1.270209885298069
1.257094264880502
1.23778881148115
1.228623771845804
1.269273516135716
1.258002836530304
1.238651996971496
1.279242527989613
1.283847317831692
1.249644683286243
1.246414698382001
1.246126899077295
1.283534101310059
1.279553853026184
1.278616522504587
1.281934132734064
1.24466664664589
1.249059609484945
1.277660079075263
1.245547564553373
1.282901522556748
1.270823131673711
1.258895700634981
1.229175344763158
1.239502563972951
1.25859829982106
1.239219938702458
1.271129013024382
1.188761820019443
1.181156099686209
1.210997054326175
1.203492492355661
1.188040674318805
1.211787756395314
1.181856472646511
1.172862830995045
1.156707804735686
1.154414613045494
1.174196705296461
1.155020828070792
1.172194418236038
1.174871551472311
1.193980170592146
1.19663420283391
1.220916543147302
1.218278614485727
1.218014115003221
1.196390071459262
1.194222170991019
1.169341843049755
1.152287534637668
1.147211808347576
1.163758053931899
1.152090629495397
1.163547551704141
1.16955839507043
1.168907183120988
1.162488112118248
1.151100851924564
1.14682790493336
1.151695728512377
1.168251478263374
1.163125155674891
1.193493726221784
1.216675350073573
1.195156418190844
1.220379181347203
1.192758380053227
1.217481897567521
1.19589897659176
1.189238986785474
1.203999461444967
1.2125693531316
1.182550899119011
1.212309697369922
1.182320042873349
1.189476512245453
1.162462247394378
1.17959608404118
1.172324788172344
1.192878679253645
1.16182141818025
1.180298257269772
1.172998251804962
1.115143290664955
1.12526819176006
1.11467816841346
1.136759942302606
1.124006904596089
1.124506394904683
1.136210738345195
1.138000933800063
1.151460008846694
1.15125740283252
1.150961293470963
1.16680422610547
1.166586390889613
1.151160607746506
1.147206250509067
1.133576178221108
1.140924286629892
1.156299288009981
1.133400430942484
1.156096665628128
1.147399299903291
1.150237677020521
1.137068854637136
1.150850938238279
1.150561467971256
1.16548878315269
1.149958564230948
1.166149193940697
1.146819094732685
1.155077389579791
1.132518093139465
1.14055468573306
1.133048197139966
1.146235719767196
1.155690191117802
1.162886879399526
1.193366369022939
1.180993922654903
1.173666383982534
1.180762620684594
1.173444219971482
1.16309848191959
1.11235574245886
1.108711319540225
1.092647058323397
1.075270500620073
1.071384883067011
1.080447651292331
1.066515285783844
1.121825390998378
1.139138385953955
1.08267157429909
1.078234996734136
1.094628874492677
1.150072954632468
1.147718978113343
1.088196326697255
1.09123556726841
1.085863575154317
1.085490540182012
1.118298011519366
1.114985726671742
1.105961455843483
1.079580102367676
1.069643358222915
1.067636848791135
1.081946519190875
1.069435194379133
1.085669435079651
1.070557689140651
1.052468644802598
1.067134761088717
1.050610251084177
1.063065902006462
1.052034948711761
1.049425512807537
1.043481089363129
1.042341104370056
1.056786747101043
1.047526291515191
1.046033295392132
1.07344439213398
1.070569204161678
1.090273379207749
1.054127615355266
1.062343607090686
1.064097673164073
1.056185193534969
1.068118353412193
1.065511999248804
1.052800869734965
1.042911804370062
1.043930858694037
1.048205076439727
1.049415558601769
1.154030470377128
1.09253166238743
1.170999756962104
1.157009185862712
1.091811139396144
1.086590090578209
1.119688654881785
1.121939569199416
1.103466416401542
1.081242217858362
1.075210795422379
1.082958007895592
1.073095851261797
1.159702574455256
1.097091924114008
1.160142838665284
1.093170291194206
1.090484307954551
1.124001567569835
1.114147944676416
1.124512958011761
1.081716594353322
1.078142541416767
1.073497629912048
1.086547344457053
1.074219524754174
1.075974121545945
1.095457757577577
1.057666455656592
1.064332182052181
1.056745655860677
1.064837109722369
1.07077279541561
1.048897179392157
1.057149163253267
1.049009436426132
1.071308282036955
1.055131758509654
1.055330894251858
1.068822005138019
1.056477248893819
1.070416540677684
1.047512271317203
1.048228075529489
1.051194783119598
1.053494413638087
1.076365728923402
1.097017126154666
1.076954009057737
1.058526942559404
1.066111536038205
1.06948509833532
1.058743522695458
1.265255004183853
1.260734361895132
1.251957130600433
1.256331589475906
1.23903762687666
1.243380674331448
1.230973011986957
1.210177877009911
1.185981548768514
1.194371189332325
1.213173080771095
1.179933522369851
1.203198572368527
1.188026978190984
1.227637918929859
1.20015236992082