/*--------------------------------*- C++ -*----------------------------------*\
  =========                 |
  \\      /  F ield         | OpenFOAM: The Open Source CFD Toolbox
   \\    /   O peration     | Website:  https://openfoam.org
    \\  /    A nd           | Version:  7
     \\/     M anipulation  |
\*---------------------------------------------------------------------------*/
FoamFile
{
    version     2.0;
    format      ascii;
    class       volScalarField;
    location    "0";
    object      p;
}
// * * * * * * * * * * * * * * * * * * * * * * * * * * * * * * * * * * * * * //

dimensions      [0 2 -2 0 0 0 0];

internalField   nonuniform List<scalar> 
12676
(
-0.001166813364250391
-0.0008914674041274657
-0.0007310850818599159
-0.0006173772572766954
-0.0005348190592784476
-0.0004742530065547575
-0.0004298733352906704
-0.0003978637452674048
-0.0003756953895875867
-0.0003617280365291842
-0.0003549759117299389
-0.001528750711285412
-0.01883080318751287
-0.01108435969557921
-0.006749506109609697
-0.003213256602518541
-0.002259679231498914
-0.001652970227529453
-0.05139846912260914
-0.1151520917532489
-0.1164688658046138
-0.1219060292451146
-0.1804477199849157
-0.1075976135355064
-0.1766758427075714
-0.1233213409582538
-0.182542043285963
-0.1898130829098296
-0.1283226572717419
-0.03135159701804513
-0.02024213941440652
-0.03443108285991296
-0.01184327788088261
-0.01629152103346351
-0.01251035342288784
-0.01738227936516319
-0.01498476680172681
-0.007617725517923076
-0.009133656352983716
-0.01169522258963988
-0.01593792660352397
-0.007891726413037746
-0.00949686192861067
-0.007957171597486582
-0.004805544443995414
-0.005449149559308331
-0.006973141264705602
-0.008246583629684907
-0.004931669268671582
-0.005603115499117723
-0.003521119828652993
-0.003276544582866815
-0.003594418793797982
-0.004323147025853791
-0.004853122405951874
-0.004428514247741963
-0.004979789063521206
-0.002421172122182104
-0.002929573056276502
-0.00318950486561478
-0.002983455016192327
-0.003251270205466726
-0.002293701758899528
-0.002459067735775676
-0.002083555983469778
-0.001753375857349232
-0.002222999944435885
-0.00167427026338172
-0.001772617843000295
-0.002112961962492098
-0.002255381341906391
-0.07274971582413968
-0.02007711939798958
-0.03482083536981057
-0.02164076903418798
-0.0384427757233255
-0.04836883313091497
-0.07204908254424995
-0.1995571043762953
-0.1555513363725276
-0.1531557622392831
-0.2088494083037565
-0.07638178509452979
-0.09900904511694439
-0.1669371705960759
-0.1018715902039657
-0.08616756535703975
-0.08851491323096652
-0.1467030907375866
-0.1696406283630767
-0.2167529327617189
-0.1596455830574754
-0.2112991081507083
-0.1627849105516666
-0.07926790083629627
-0.07714282823538919
-0.1037263455388201
-0.1000471252448769
-0.168864936790928
-0.1755813300611941
-0.1211298551003564
-0.1862956877907505
-0.1360925995099329
-0.1577405204807988
-0.1253324003783622
-0.1322701089223124
-0.1508642235138718
-0.1949611352888313
-0.198596716645552
-0.1665694084949302
-0.2281021105649638
-0.1725517056141904
-0.1592948481509588
-0.2078121509408063
-0.2180257218143236
-0.213499938548057
-0.2464083118500586
-0.2234013091248463
-0.2355512964413931
-0.1588129972059693
-0.1780454811803796
-0.1958008553170719
-0.1446568586331808
-0.2368764930721402
-0.2205871888338661
-0.232112720683309
-0.209479217081733
-0.2311137842586776
-0.1196179678569787
-0.1474511726895593
-0.1381828524208324
-0.1828052890722243
-0.1124088091758905
-0.1251695147499735
-0.1481222607911754
-0.1818993780689799
-0.1582835489400588
-0.1521850859160713
-0.1948696031416762
-0.1693810739201983
-0.1563857831822142
-0.213926555022842
-0.2023682512971489
-0.1377142216543669
-0.1595758407114318
-0.1256357723101709
-0.1972528860707045
-0.1403611336245934
-0.163700818271901
-0.2156494355178575
-0.1685060450157612
-0.2307443536138141
-0.1872296227807505
-0.2102407675308717
-0.1728512462612845
-0.2366108220365356
-0.2317762934320322
-0.249243865092359
-0.2260014784534131
-0.2555212920087443
-0.2179491140627149
-0.1661449656752868
-0.1656690998058986
-0.2197242350465081
-0.2330403432395881
-0.2589216806566345
-0.2568922631982282
-0.2349143828957416
-0.2168374753011371
-0.188265422937015
-0.2398052718855024
-0.17525192614207
-0.1738132770391185
-0.2378964532426386
-0.2186037554616549
-0.2034939606755926
-0.1352001449194049
-0.1434219035780029
-0.1659839477387298
-0.1428108476892069
-0.1646154005439346
-0.2051690327948055
-0.09545730229127626
-0.1078632831358969
-0.09105462353514168
-0.07875439999263914
-0.1026443284282077
-0.07067895943785373
-0.1091098073664847
-0.1135418847074441
-0.103809024936559
-0.0733042291821491
-0.07137076108862038
-0.1079541557181673
-0.2299429957576207
-0.2142025983696998
-0.2253210939821913
-0.1545452573752895
-0.1731283689217843
-0.154077099684521
-0.1481753282157456
-0.1718136622110432
-0.1768632138094772
-0.1346036567569418
-0.1050099695217154
-0.1166297762365498
-0.1435547611212236
-0.001615084001265899
-0.001455673810717578
-0.001646268569004412
-0.001329530220948452
-0.001322830090142538
-0.001373328819876419
-0.001367496596519604
-0.02119448533192539
-0.02404966405232555
-0.01821121387100078
-0.0165103765635285
-0.02781954841832466
-0.02037355669990377
-0.01702471223438657
-0.01124330450649598
-0.01278802028741437
-0.00982461003255587
-0.01064520614719396
-0.0140038055709254
-0.01099887900211496
-0.01002973561537652
-0.006576326662079317
-0.007332914415458143
-0.006003877422095257
-0.006859573648084796
-0.007458440354522838
-0.00647431543583224
-0.006094349781974922
-0.003754898876259698
-0.003364100367267659
-0.003244506077143116
-0.003535539573353846
-0.003397759355480133
-0.003714975573950371
-0.003572394676309007
-0.00257025048359349
-0.002339027612701836
-0.00245704460558823
-0.002276476537656936
-0.002356777979902097
-0.002549536069546721
-0.002476561014865576
-0.001847242592224642
-0.001783184834601802
-0.001701531122653296
-0.001663015571073042
-0.00171186385826424
-0.001835670058701477
-0.001794198831177275
-0.05162620123129234
-0.02745508853514246
-0.02724152305618424
-0.04621186959100302
-0.02862677019299473
-0.02845375887801198
-0.04737395076789767
-0.1620681855249501
-0.1643363413649268
-0.1886027707852277
-0.191188123158842
-0.09666350567188955
-0.09280160833103303
-0.1120568158247787
-0.1469089868982149
-0.1405762591802995
-0.1139832702328412
-0.1188830201496135
-0.166356810650138
-0.1681258392426657
-0.1954810409119011
-0.1934810085670527
-0.09771195916842747
-0.1000976220711162
-0.1186239378203502
-0.1486038396790546
-0.1524207666026422
-0.1231918419819631
-0.1202033465092912
-0.1289055629501039
-0.1272073327163259
-0.1203229313647529
-0.141888824871714
-0.1351146636088583
-0.133352337384139
-0.1437860574324541
-0.1898999805357215
-0.1780803794620486
-0.1951191863076975
-0.1780851199375545
-0.1757485867186465
-0.192430362302469
-0.192554512686031
-0.2774991901002826
-0.2861746617668974
-0.2811151582758397
-0.2825013926887849
-0.1671039585235929
-0.1436929507279282
-0.1472620726435555
-0.1713700241531741
-0.2499312465979883
-0.2455255793811094
-0.2521848742973515
-0.2567293719623205
-0.1135281700801785
-0.1264027528090598
-0.1190231213465163
-0.1100673736078842
-0.1161859154066246
-0.1294406600083508
-0.1218269989439857
-0.1816961856953986
-0.1903740014968743
-0.1690335883556175
-0.1812305176006097
-0.1864186517925863
-0.19535886440003
-0.173358966415757
-0.1304228730743232
-0.1245654925108024
-0.1317558732900567
-0.1469585178297103
-0.13668651534312
-0.1380654331060533
-0.1454766846796503
-0.1966227000798515
-0.1801479443233628
-0.197388957312976
-0.1843694505569787
-0.1819524177351277
-0.194670441164517
-0.1993665990157234
-0.2870349005112836
-0.2893979054326628
-0.2842894689771771
-0.2921847964538903
-0.1731401008734522
-0.1733865308013381
-0.2011091739322601
-0.2013845271714548
-0.2946484309237415
-0.3002839264954874
-0.29991225751949
-0.2950159697918542
-0.2021490581624224
-0.189555764255506
-0.2052391160743411
-0.1873299094794857
-0.1870756269329613
-0.2049624841393882
-0.2024223926545129
-0.1357745410297195
-0.1355832118546941
-0.1281433886042194
-0.1511955417549173
-0.1422136325477044
-0.1420162161748725
-0.1514067074325763
-0.02247932991307525
-0.02697953197696486
-0.03328767519491306
-0.02565205684789475
-0.02991445281049826
-0.02451791081120565
-0.02452237490884465
-0.0214232352218857
-0.02008216442479055
-0.02870644255046251
-0.01760839411650279
-0.02816936305081126
-0.01752283552186859
-0.0217739135378402
-0.02272871189249346
-0.03373874568267005
-0.0308985857122641
-0.0252383422020424
-0.0303026568685324
-0.02480503115882258
-0.02311100848700169
-0.01943421349493053
-0.01371828847968118
-0.01377055995140686
-0.01214562491687588
-0.01515682783760701
-0.0160398252934803
-0.01389194009242667
-0.02053528638742473
-0.01914920737085899
-0.01575985474903982
-0.01698006627746563
-0.01586588570928691
-0.01867749043988946
-0.02228005293725968
-0.01963373759380103
-0.01434343972733249
-0.01330842136273652
-0.01549675497946036
-0.01529113360071096
-0.01425072860922473
-0.01993946379804843
-0.02075171294647672
-0.02289684387554683
-0.01713897108368214
-0.01622983103584691
-0.01600967796487924
-0.02252361693335007
-0.02108333622631032
-0.01211487215362335
-0.01452316150212448
-0.01228248215683729
-0.01558694958102612
-0.01461957700914679
-0.01184184711775964
-0.01257083893959726
-0.009748769411566627
-0.008632282127485572
-0.008347651813750854
-0.007752512146917813
-0.008503314525983442
-0.009554205891896338
-0.008798564249697813
-0.0104265842856497
-0.01055381355322168
-0.008865077909656271
-0.009312228766957304
-0.009035770574079617
-0.01021151606549016
-0.01077972044339731
-0.01141076757000693
-0.01162804924812378
-0.01430286136649466
-0.01024160494408115
-0.01412179966920243
-0.01016983645985602
-0.01149634651540001
-0.01230237866850991
-0.01572546636156219
-0.01493867016760663
-0.01287024254086393
-0.01474550148875051
-0.01276899084103836
-0.01239818990835713
-0.009881930624438989
-0.007844673092658828
-0.008970165083451149
-0.008664140510076523
-0.008609803568255622
-0.008912150032939478
-0.009949893600947482
-0.01057398055579384
-0.009434485812033381
-0.011013703836834
-0.009212210728635473
-0.009152602670320366
-0.0109346263580993
-0.01064921636523747
-0.006914717870002939
-0.00774428625888334
-0.006974862925644268
-0.008099574929250329
-0.007880898110242774
-0.006804468513070219
-0.007089404386246654
-0.005827258836267043
-0.005361297782324945
-0.005118857227147176
-0.004867736749406425
-0.005187666556000867
-0.005743758079864015
-0.005436102074324278
-0.006100738619579201
-0.006148691930469468
-0.005337036679090001
-0.005525062124377892
-0.005410524910538624
-0.006011059299350031
-0.006241581408412102
-0.00664594760414533
-0.006934763906396663
-0.007587980636820601
-0.006187570283121922
-0.007544219963457469
-0.006156074663329008
-0.006681456476741595
-0.00698997896742927
-0.008196930639575068
-0.008021909807524727
-0.007207476795579134
-0.007974280324625724
-0.007167604855773055
-0.007028355684711613
-0.005884176493847228
-0.004910072364071165
-0.005513081504569
-0.005258407564194187
-0.005234518192068036
-0.00548707624086666
-0.005913200978976596
-0.00616188040278758
-0.005576763511118542
-0.006337205002781894
-0.005486082040766794
-0.005460570826808199
-0.006304918413891723
-0.006193051217307975
-0.003880931778545731
-0.00346801690143878
-0.00355731849623542
-0.00390224085251174
-0.00350335388551402
-0.00383886464852608
-0.003945411034045244
-0.003782013449473217
-0.003265715901645979
-0.003432261885130142
-0.003610197685078372
-0.003420605136963406
-0.003597423571124501
-0.003795843988131473
-0.00390950397641878
-0.003581888962535333
-0.00353957269859238
-0.003989682328165639
-0.003527339140227934
-0.003974733337575769
-0.00392407291354546
-0.004165211629704615
-0.003902915309371522
-0.004581645991646391
-0.004375127068740541
-0.004638706331441044
-0.004117614349885169
-0.003946579465422776
-0.004316578430822996
-0.004342340872249366
-0.004761079445298208
-0.004915607803351901
-0.004821716395682091
-0.004266223095670513
-0.004394118295054861
-0.004197561644491513
-0.003991392991215941
-0.004410478975722381
-0.004697312216988611
-0.004677520644172112
-0.003976252479472185
-0.004214059057764599
-0.004350806132865845
-0.0044472546747827
-0.004958120821398589
-0.004883997610474986
-0.004862968994825244
-0.004429314345003371
-0.004368255445763487
-0.002634490032347721
-0.002393415756358874
-0.00264530147378379
-0.002439895619747228
-0.002411813385702049
-0.002612951306596884
-0.002667260030133249
-0.002811624184389876
-0.002679036604246732
-0.003057077181025797
-0.002956182616588449
-0.003085589357521842
-0.002787367985961594
-0.002701784617869629
-0.002887030120788291
-0.0028996753842335
-0.003144744017370734
-0.003220014664406229
-0.003174576909042936
-0.002861730701573715
-0.002925508270928096
-0.002828072388915522
-0.002974234569718733
-0.003114804706479241
-0.002725095064716263
-0.003104931601467392
-0.002717211255841262
-0.002836472536132533
-0.002904184891344356
-0.003240711765785237
-0.003205141092365845
-0.002951964108580893
-0.00319481489413802
-0.002943024312981811
-0.002912942125886843
-0.002584293390559348
-0.002287868908968257
-0.002496561355544938
-0.002374967254978175
-0.002368811921679045
-0.002489793812452681
-0.002591469856099938
-0.002649090092210057
-0.002452583694454763
-0.002689744390635274
-0.002430656706147945
-0.002424282618088108
-0.002682143702084684
-0.00265654770808274
-0.001998346706605978
-0.001925667886374367
-0.002151993141409736
-0.002098056889669083
-0.002167257999202983
-0.001985143000653806
-0.001938238712075754
-0.001884044117910426
-0.001735473641057747
-0.001891376084898823
-0.001762926719436686
-0.0017455906281231
-0.001872355965899135
-0.001902986068861164
-0.002039752873419213
-0.00219897868987297
-0.002047302540643621
-0.002238998087208168
-0.00221473852976539
-0.002026210664129766
-0.002060973416940297
-0.001855108893605791
-0.001670388421798795
-0.001722446935765567
-0.001805852187198385
-0.001718864632745063
-0.001801862892424462
-0.001859147218957969
-0.001891933453541195
-0.001769342906801281
-0.001755667057849725
-0.001914838010992407
-0.001752278324004141
-0.001910827913247875
-0.001895965970220581
-0.002007315296696266
-0.002107907571763618
-0.001951254283242249
-0.002182916385762517
-0.002177612997436606
-0.001946826798652544
-0.002011916177482331
-0.002048929494742954
-0.002249837638408438
-0.002074967803010331
-0.002230886236628863
-0.002225420731425216
-0.002070230822829682
-0.002053627499063555
-0.07470800448800234
-0.09657808322755559
-0.09321303721654586
-0.05156169046056298
-0.06204355660115166
-0.06042794072787495
-0.05288559666907548
-0.04108417174173296
-0.02617328633077041
-0.020778866067984
-0.02312430128710093
-0.03058097570075802
-0.0235217802144728
-0.03107790385114846
-0.0453810920820137
-0.03293387164752494
-0.03709673575904412
-0.04246519475642237
-0.03306941512216149
-0.04066609024112407
-0.0524746760395295
-0.0417171340654245
-0.02456901943334776
-0.02146310241690552
-0.03160776537514622
-0.03098582403081935
-0.0243525067912818
-0.04269758300048302
-0.04611114327727876
-0.05471674548016497
-0.03762763403377901
-0.03421676913411341
-0.0335218703183769
-0.05335961288159526
-0.04723264315232402
-0.04776183641769912
-0.02826866235206734
-0.02516704478695472
-0.04548573608530342
-0.02632776270665371
-0.02737469800162406
-0.0402733731142275
-0.06308461279614815
-0.09226505984150543
-0.08270971814494231
-0.05068454175545244
-0.0620690075922824
-0.05711418226999318
-0.05937169543859617
-0.2131851293647189
-0.2381424530919315
-0.216059175004622
-0.2350150694734056
-0.159557420490926
-0.1568109013501858
-0.1857259404595969
-0.1825596560280336
-0.2099742397152342
-0.227620904076511
-0.2315103881519993
-0.2064236538129497
-0.1979753971901496
-0.2133999172999626
-0.1829516147917943
-0.2029819265038562
-0.1860985358777695
-0.2170604067608979
-0.1946222820973983
-0.15771618092368
-0.1506474462734301
-0.1485951082724506
-0.1791810952095909
-0.171917203659238
-0.1816374678849542
-0.1695982021562365
-0.1463251358098165
-0.1438433705069422
-0.1505357025287175
-0.1764500602995592
-0.1641923921650167
-0.167022357977013
-0.1734466803662302
-0.2010115642950745
-0.2233162884536224
-0.2060782178961496
-0.1915124415087497
-0.2037324267090012
-0.1889520014613743
-0.2203640588108573
-0.09113010207497926
-0.08756318216982562
-0.0735823805920211
-0.1064116167703489
-0.09042051013152412
-0.0869781804993673
-0.1109005276238838
-0.1109720625564204
-0.09378447766708133
-0.1231425331794271
-0.09517238100037879
-0.09018734254698765
-0.1156833137391252
-0.1180853678407598
-0.1547037195436806
-0.1596938453022466
-0.1480152239653442
-0.1191266812921716
-0.13270245064485
-0.1242770332603881
-0.1271619265157452
-0.1293544775031008
-0.09128942391146443
-0.1063321175345084
-0.09916956931910756
-0.1380584709268437
-0.1120492701324814
-0.1064446473965115
-0.07248820295173317
-0.0687839170287718
-0.07696689629913507
-0.1046431141398547
-0.08102733452034801
-0.08562769799531386
-0.08781819437870536
-0.1091133047910353
-0.09366402954466028
-0.08621307646801914
-0.1007395984882724
-0.08877498312746206
-0.09880950414438841
-0.1160859686060699
-0.1361047640263012
-0.1567962573170855
-0.1453493067616668
-0.1170903878009687
-0.1263325592724827
-0.1221508856909384
-0.1249660589615049
-0.2208089127362586
-0.2408994794872322
-0.2185994608121892
-0.2432921976486692
-0.1708992008997336
-0.1971881034958526
-0.1986023215845557
-0.2226900132994849
-0.2470034997441485
-0.24532553948223
-0.224244880566322
-0.2100241103258267
-0.231708447890903
-0.2152478043230803
-0.1988476747749903
-0.1974470614126126
-0.2301145716122862
-0.2115044652724456
-0.1613360264244161
-0.1524776492331683
-0.1540823042038072
-0.1857216303864971
-0.1739776246990407
-0.1838178632349776
-0.1757784365265972
-0.208236602184899
-0.2259223541466697
-0.2134308319405229
-0.193780870554441
-0.2061400507752524
-0.1957586066353082
-0.2281870632367007
-0.1639904135955443
-0.1566055223601605
-0.1554588659551443
-0.1873485192663084
-0.1785994618993377
-0.1773190999541653
-0.1886986072801348
-0.09480083880558332
-0.07985645821254528
-0.09554681223894598
-0.1154728417320693
-0.09466902768457434
-0.09395208729531958
-0.116396105415291
-0.09209921160090601
-0.07887788146888747
-0.09430575046673921
-0.1148589829399455
-0.09135382100512865
-0.09347628327212072
-0.1121123461656154
-0.1204718341120794
-0.09821734088190333
-0.1029317873572529
-0.1292978397358599
-0.0974698938471245
-0.128266531261238
-0.1214374712223839
-0.119829564697052
-0.09475899860456506
-0.1024041308310747
-0.1245032681098576
-0.09697370500791321
-0.1169534597252476
-0.1275802219773508
-0.1564897054893049
-0.1731900894689615
-0.1605056331839939
-0.1287958376589008
-0.1341897804192699
-0.125662747197777
-0.1375473143236859
-0.1741479696047716
-0.1627309357108598
-0.16139663708899
-0.1294945388141767
-0.1394177521473085
-0.1382950718545376
-0.1305441729423909
-0.1006325391987592
-0.1206275459361422
-0.1014380930283822
-0.1545392581799948
-0.1532687178341761
-0.1238589143863026
-0.1248614458869086
-0.1635099136465579
-0.1716269960980201
-0.1737288806478303
-0.1894844087302263
-0.1745652968968575
-0.1766857773604611
-0.1607779362827866
-0.1342764641258377
-0.1433810905323772
-0.1414460928915568
-0.1508235372700902
-0.1622715165194334
-0.160093682152187
-0.1528599085923604
-0.1553155083178677
-0.1471625530813813
-0.1556758570414314
-0.1693620417842465
-0.145238526881013
-0.1671288308737365
-0.1573923883038738
-0.1185761802064417
-0.1166707681772547
-0.1232859375644259
-0.1397879011776432
-0.1292697567204378
-0.1314026998355317
-0.1374870911391453
-0.1393071198505883
-0.1369697366092888
-0.1300788887841958
-0.1485662480916544
-0.1550248882050548
-0.1576770927155201
-0.1460915532780795
-0.1530101600717029
-0.1619124829978351
-0.1533830905202246
-0.1407664749313962
-0.1431055052711221
-0.1646452902301103
-0.1504787493664221
-0.1659943841119823
-0.1923723391140756
-0.1796308996128755
-0.1817770129399872
-0.1772334928382636
-0.1793684371567737
-0.168229709529815
-0.1962878463931015
-0.1845742586035692
-0.2019939557319555
-0.208161915225906
-0.1877182197531041
-0.2117204779769369
-0.1929993133374182
-0.1846671940972057
-0.1734115437388971
-0.1643882743052351
-0.1793674322614544
-0.1711406966836143
-0.1770046914521957
-0.1871297476690744
-0.205205267852241
-0.2109977825089844
-0.2246338044973107
-0.2251063001982749
-0.2216801948968871
-0.2079435388760011
-0.2082214313011033
-0.1870770126302884
-0.175453242206251
-0.1702899445169149
-0.1865304568073744
-0.1731518132969651
-0.1839596505153917
-0.1896923256637425
-0.1819217736227422
-0.1714731478638894
-0.1619630476904161
-0.1658298871249086
-0.1686133453794625
-0.1743733089032934
-0.1788923708650401
-0.1992620743835414
-0.2050645206830907
-0.1931176534755003
-0.2178023529004918
-0.1905654349850676
-0.2149321457186104
-0.201925046223854
-0.2021446249344509
-0.2147039307187311
-0.2217499231229351
-0.201680259080872
-0.2183724480736586
-0.1987576419545066
-0.2051170722967837
-0.2676823698048825
-0.2567134675796962
-0.2533744701153782
-0.2711857424294213
-0.2734263712490268
-0.2737372219480929
-0.2688791997873073
-0.2783618396493205
-0.2637406424185217
-0.2454502483314605
-0.2496239528095072
-0.259345485152263
-0.2455933141625533
-0.229183202924913
-0.2171565423446935
-0.2243513268594988
-0.2331006517018231
-0.2281875317508115
-0.2414763013951963
-0.2579690017271253
-0.2658281789083977
-0.2424723506632331
-0.2431876914086382
-0.2392984348651576
-0.2613650195337333
-0.2623804774863089
-0.2492931341113098
-0.2397723705445625
-0.2204549661375437
-0.2347240491626044
-0.2366274487138114
-0.2316423483757649
-0.2525872799618248
-0.2541509649458387
-0.2541796017877744
-0.2317782018668582
-0.2395722242432391
-0.2357369889957062
-0.2498974442763888
-0.2585024463808008
-0.1888012877700503
-0.2080675710648369
-0.1937181587340225
-0.2135681829856468
-0.1380080211190123
-0.1319761941975915
-0.1504381920960146
-0.1414212716661693
-0.1352112401313368
-0.1628488152238674
-0.1542264261854094
-0.1950989541262924
-0.1825330421916546
-0.1674621782083385
-0.1826596093714025
-0.1872880058662392
-0.200229184326435
-0.1717621944176402
-0.1506498014209432
-0.1538377441117747
-0.1753748828162926
-0.1791074533257502
-0.1982957966363721
-0.2233389015860673
-0.2025311850088247
-0.2186568968950001
-0.1869630953001987
-0.1917112694582006
-0.2093773778052176
-0.1795117327175075
-0.1909513788839872
-0.2049882348651428
-0.175780714368285
-0.1411572584080252
-0.1476992850524052
-0.1382760979133947
-0.1666394673798077
-0.1611123197497929
-0.170174653802832
-0.1577877876581993
-0.2242631876000818
-0.2432649080077703
-0.2302603259492383
-0.2094294505279679
-0.1951868172585013
-0.2050337761042679
-0.2264971046722032
-0.200325544328313
-0.2149966166188709
-0.2104725214702281
-0.2282280990116267
-0.2117722949609535
-0.2151954332567636
-0.2343742176469904
-0.2209452684485431
-0.2174171533929886
-0.238379433178628
-0.2582809657473277
-0.2686062940430843
-0.2638379680100525
-0.2629455083796457
-0.2491263268021437
-0.2408406694260985
-0.2544801193977022
-0.2357818648810084
-0.2319408530660518
-0.2050890829138497
-0.2248659649112346
-0.2201253053299025
-0.2369297387145624
-0.2201398832355078
-0.2155013801564515
-0.2400245689909112
-0.2262485633384014
-0.2493960918049445
-0.2274118766361534
-0.2451937905267043
-0.2226279307762485
-0.2441350885072467
-0.1341341788321984
-0.125799714606141
-0.1421714630377197
-0.1224687209566274
-0.1288447186343562
-0.1374168148558366
-0.1457060074072802
-0.1705364491983437
-0.1572296823536999
-0.15919659183212
-0.1511309226799837
-0.1749224273775206
-0.161215629493864
-0.1632273660582051
-0.1294500281576616
-0.1485518425619344
-0.1386090400522448
-0.1415694392934
-0.1419878001303446
-0.1325596472606675
-0.1522459674331272
-0.1545835403873601
-0.1790135215276152
-0.1684202801672369
-0.1704985095548404
-0.1578011322269396
-0.1649482072555956
-0.166996727003146
-0.1187046114611571
-0.1146126455132009
-0.1210741939918019
-0.1323065912143766
-0.1269585070423788
-0.1244751010447518
-0.1349912725949645
-0.1344408982990094
-0.1277093777358403
-0.1317291381625324
-0.140509975659786
-0.1521414294655648
-0.143404113820608
-0.1490325812004135
-0.1447528300816483
-0.1451614896332199
-0.1589324596942061
-0.1382254286875946
-0.135487588203127
-0.1477247214719161
-0.1557085920707685
-0.1845507040121396
-0.1963090003001605
-0.1993226017373409
-0.1866110035369231
-0.2045788188040426
-0.2014737442218142
-0.1893420587365557
-0.1562314446569962
-0.1685495509803133
-0.1708817488845002
-0.1728384118359618
-0.1622420261761962
-0.1601293737987605
-0.1752400969207796
-0.1639529032173298
-0.1572232023355054
-0.1462565942362517
-0.1681048743946101
-0.1498604571536302
-0.1559636677026242
-0.1611749565750307
-0.1854709811528222
-0.190810429428578
-0.181132589121447
-0.2042513634269309
-0.1893940989985784
-0.1999845789520622
-0.1773934755014718
-0.1768391125998795
-0.1659432616700539
-0.1671638203907669
-0.1830675421418826
-0.1637756273995782
-0.1805469151815003
-0.1793034938585706
-0.1719819460650279
-0.1532392770745689
-0.168304999567545
-0.1627916894137403
-0.1595014565026387
-0.1755787424671174
-0.1648709707979921
-0.1909922309192557
-0.2094459412931016
-0.2106682050519586
-0.1979070864688759
-0.1950409389254549
-0.2062595573249714
-0.1937947138318714
-0.1734347206629934
-0.2009542615572324
-0.1865186508787063
-0.1886899446900585
-0.1852006079328784
-0.1873674140875229
-0.174669458488477
-0.1391379420996972
-0.1451077357445161
-0.1466226424137967
-0.1562603066275217
-0.1642084169568985
-0.1659029363355867
-0.1546727803436726
-0.1608549500923616
-0.1488754050478422
-0.1713445700638649
-0.1611811389739643
-0.1503755391932819
-0.1592391999623189
-0.1730765468889744
-0.1329018841567669
-0.1338588400232824
-0.1265300485312082
-0.1482299502101568
-0.1402374320261559
-0.1392495378654018
-0.1492898483135234
-0.1719500110262696
-0.1992498497029231
-0.1817575338242211
-0.1839122624340005
-0.1836138621779721
-0.170215024369278
-0.1857753011266396
-0.149007643874759
-0.1479232389714108
-0.1413818193212184
-0.1576212126369319
-0.1685616421065991
-0.1673541703246632
-0.158754679286852
-0.1622390889000719
-0.17579077510501
-0.1625561336339258
-0.1527338146643551
-0.151661901318032
-0.1745584087217299
-0.1633913928999484
-0.2080799899665422
-0.2141560209644671
-0.2004220977123188
-0.2259712612626059
-0.1990269858201468
-0.224416599995505
-0.2095309884889173
-0.1912131258022386
-0.1754261600215024
-0.1814622842124943
-0.1701982687669594
-0.1771852479202226
-0.1893110844931378
-0.1832903688485734
-0.2124696136670966
-0.2134507310923076
-0.2272397326488632
-0.2330394989724758
-0.210363618085948
-0.2295039823918648
-0.2155847554886669
-0.1982896210191324
-0.1859314631446178
-0.1847774406690117
-0.2024562477853204
-0.1834951248738749
-0.1996735552277959
-0.2010548426874975
-0.2063306905554709
-0.2123542043282483
-0.1953770693299549
-0.2203365062212075
-0.2042801204967684
-0.197346058510783
-0.2225397126185379
-0.192837866844493
-0.1861514909811948
-0.1716464762808452
-0.1799407139964646
-0.1786897500094842
-0.1848529865295044
-0.1941872491464586
-0.2142653684086608
-0.2330282931729407
-0.2349933150459718
-0.2189122281934406
-0.2314319337960057
-0.2157543566996824
-0.2174040109387902
-0.2769281132877073
-0.2596513213140867
-0.2621968676397719
-0.2742639472764987
-0.2893617851653186
-0.2964916040640341
-0.2912783435217586
-0.2945464218472609
-0.2791872229760753
-0.2661381679328323
-0.2643572468728252
-0.2810484312163985
-0.2601328018788205
-0.2486802673126359
-0.2301844649149849
-0.2434631048494732
-0.2469919041915874
-0.2418042604018905
-0.2618944692221285
-0.2669375123833357
-0.2688584448133661
-0.2452678289570664
-0.2517030621372789
-0.2643510523124131
-0.247692997592571
-0.2714824118119276
-0.2579987907980704
-0.2425435068007765
-0.2282609241197543
-0.2374404065453354
-0.24494800372517
-0.2554861477132119
-0.2397984392825516
-0.2691331085095074
-0.2755470416013842
-0.2514594769079817
-0.2537934175740846
-0.2497548887749372
-0.2709450174353893
-0.273709391643705
-0.1726464752919929
-0.1719007495924793
-0.2005582802459284
-0.19972467573438
-0.2269910090441162
-0.2502838840141168
-0.2499597170005702
-0.2272923739392457
-0.226388760433777
-0.2483302519088194
-0.2254761574466493
-0.2493122678159856
-0.2135539970772016
-0.2329723068855215
-0.1999621356298488
-0.218839900796214
-0.2126799026336271
-0.2339110358040752
-0.200792913588219
-0.1663823153755436
-0.1588876824401631
-0.1586608299951599
-0.1911024919466824
-0.181139102953398
-0.1808870276764639
-0.1913669083077725
-0.1649516437033792
-0.1575212317027647
-0.1582059570192699
-0.190572610690027
-0.1796198805377666
-0.189772612200499
-0.180381603360029
-0.2141322940995766
-0.234841429857482
-0.2194299589165533
-0.2016182945786643
-0.2345315805729683
-0.2013436232829525
-0.2144209969022237
-0.2939113404106622
-0.2980280447024506
-0.2927919353370799
-0.299164452075416
-0.284321572041893
-0.2696149873617422
-0.2692717204154696
-0.284679520358603
-0.283605442398885
-0.2675451612821088
-0.2825183573700076
-0.2685858943810864
-0.2643246811484751
-0.2500179004708943
-0.2447797254294538
-0.2339810462017119
-0.2632895479797762
-0.2510107302229843
-0.2457591888192334
-0.2741467279547188
-0.2791480124196671
-0.2585863091039952
-0.254815175134291
-0.2544837767693511
-0.278793921081618
-0.2744967021678607
-0.2734440025837213
-0.277002066758088
-0.2528120739259482
-0.2579118841341117
-0.2723796416470731
-0.253818120454893
-0.2780815369707654
-0.2650083497054668
-0.2519941358196264
-0.2346038583455564
-0.2467304675551515
-0.2516666930872472
-0.2464074426031748
-0.2653493314080158
-0.2115490504644095
-0.2015335544749992
-0.2272074222606335
-0.2177233735348579
-0.2106864322696832
-0.2281288628604798
-0.2023636238115994
-0.2016011515278422
-0.1890403203394121
-0.1858007229107164
-0.2035731705084059
-0.1865663256697404
-0.2007766936449023
-0.2044078462115677
-0.2184117963400931