/*--------------------------------*- C++ -*----------------------------------*\
  =========                 |
  \\      /  F ield         | OpenFOAM: The Open Source CFD Toolbox
   \\    /   O peration     | Website:  https://openfoam.org
    \\  /    A nd           | Version:  7
     \\/     M anipulation  |
\*---------------------------------------------------------------------------*/
FoamFile
{
    version     2.0;
    format      ascii;
    class       volScalarField;
    location    "0";
    object      Phi;
}
// * * * * * * * * * * * * * * * * * * * * * * * * * * * * * * * * * * * * * //

dimensions      [0 2 -1 0 0 0 0];

internalField   nonuniform List<scalar> 
12676
(
29.97893993107699
29.65359861713714
29.65353618797341
29.65349007133949
29.65345547387485
29.65342937461412
29.65340976589018
29.65339530529883
29.65338510237694
29.65337858260259
29.65337540290976
30.14182716861893
30.24351098282223
30.2323249144675
30.14594835513847
30.14306794403445
30.14235139953966
30.1419116294969
29.99159374497537
29.68695391732521
29.68778524448307
29.6946350246711
29.05001907316172
29.68475009570239
29.23935031324694
29.69555729612846
29.05008803388471
29.05032615655517
29.69874951063491
29.08613824726116
30.24540153809296
29.08628763606631
30.23322164297363
29.08533909171657
30.23389933816028
29.08538980691006
29.08527145282333
30.14671092046665
29.16666839967737
30.23292198076573
29.08531556919547
30.14692476236009
29.16670124058492
29.16655172300376
30.14432093410823
29.16630449339637
30.14611874215856
29.16657777267213
30.14441176518461
29.16631827757277
29.16611517728456
30.14311133651029
29.16612177806755
30.14393382279236
29.16624596688106
30.14400860307143
29.16625730833017
29.16600645559404
30.14285212717818
29.16608253151766
30.14288874398002
29.16608811563313
30.14237402140768
29.16600994456102
30.1422219450864
29.16593874099327
29.16598664671696
30.14192400434279
29.16594068150213
30.14224133116319
29.16598965026847
29.64995999444753
30.24587748241036
29.08632943731083
30.24809805386342
29.08650683503586
29.98809348509064
29.64959681136117
29.44805544041225
29.7512808289544
29.74930622536625
29.45155839820282
29.65266458520473
29.04676591445484
29.04940522066783
29.67812800984408
29.66124952259153
29.04646812739531
29.04874228503553
29.77492437057231
29.45444739338505
29.75455266337001
29.45246052563384
29.75698601460076
29.65418140690551
29.65306675571248
29.046898186364
29.04679509407078
29.04946710460027
29.04968151659124
29.6906720792057
29.43919480477514
29.71333856317106
29.42164847266397
29.70091389281222
29.71060886265868
29.41938781253619
29.44233919352707
29.34344610496945
29.32934036580727
29.05250414568404
29.04975658128262
29.32755213572154
29.34593859001903
29.05213701899712
29.35059295324236
29.0536250635194
29.35337155561913
29.05321537360543
29.6422823988701
29.54732133074661
29.44660112205164
29.74189347497094
29.26067670503143
29.2538917521142
29.05358915750811
29.34943801661017
29.05304488077017
29.70092578304347
29.51872224881038
29.51174207960766
29.43789812022186
29.68818882297142
29.70530054119279
29.4184717083462
29.14511429718716
29.04927229763335
29.23286782544945
29.34241716547847
29.04965003311997
29.32682694480503
29.05198528592707
29.44495239237221
29.71447123026491
29.4222429872891
29.6970455838272
29.44315361645145
29.71629056857991
29.4235673152047
29.34800844909391
29.32981035266498
29.05259919200432
29.05024165258427
29.34658366087595
29.33085703623061
29.05280979030989
29.355661707974
29.05373057893163
29.35408655109054
29.05396439792152
29.45488401734321
29.75956206307781
29.75919450939179
29.45554031589786
29.35600850615318
29.05409235013625
29.05401638421929
29.35653053922359
29.34832200751549
29.05027555770417
29.05292479171601
29.33143462185955
29.33108806605805
29.05285632978756
29.3487932220469
29.44534782804309
29.70754419397509
29.71836423921237
29.42429789278966
29.71795044434685
29.42385959735139
29.4459415093336
29.77324981055652
29.78407639576801
29.76610966815844
29.74781673123339
29.77579126043577
29.73843279851105
29.78508949318184
29.78859893673638
29.77670549528638
29.74011281880512
29.73887817918513
29.77988267124841
29.25907170088568
29.25249178905155
29.05330281198536
29.63903857044224
29.54447004277712
29.04912736738952
29.23215498838994
29.23842065658812
29.1445501400235
29.51006054581504
29.68285398354967
29.69848884776569
29.5168070015921
29.49122966359375
30.14175909084616
29.16592738226811
29.97903602906057
29.97903038151472
29.32852763679205
29.32852577386502
29.74517239659642
29.91358417853371
30.2421693185262
30.23962100488883
29.74913825718761
29.91049943532031
30.24024682009588
29.82174004442729
29.90481187613884
30.1487484910178
30.23176621940858
29.74121344011316
29.82161279102122
30.14892001870684
29.81912068119387
29.81953951920632
30.14531122152172
30.14603243208004
29.81960140199467
29.81907098713403
30.14537891009859
29.81763007997741
29.81743093122564
30.14308946534946
30.14331583377953
29.81744659300222
29.81761140820025
30.14334146640902
29.81702591711493
29.81691024826917
30.14249760276605
30.14236263747687
29.81691839887053
29.81701637828156
30.1425107421711
29.81666335822188
30.1420040543038
29.81659131831344
30.1419176943885
29.81659565607024
29.8166582763775
30.14201111633881
29.99184875942613
30.3287120331588
30.32796098466874
29.76183595344332
30.26948102383117
30.2690864231922
29.76251895741311
29.76864929345091
29.77057422977204
29.67258543287465
29.67431246015668
29.66884976737431
29.66657552678166
29.68496883636345
29.41647781199992
29.41445422870206
29.40301093912376
29.4044644005311
29.7722537563506
29.77370016900445
29.6771139233173
29.67581806716061
29.66945783077954
29.67082667599666
29.68912959194573
29.41701227793162
29.41820596705556
29.40572489208742
29.40485238414666
29.70336999033758
29.70221125503683
29.69359191243896
29.61128316338675
29.6043785887631
29.60344878098266
29.61231715807983
29.14524103409471
29.14339267306695
29.05072701803858
29.04994095706467
29.14315964937247
29.14550101571629
29.05063983780105
29.16226397092889
29.05651536946292
29.16270508796636
29.05636722480844
29.65676158865702
29.75110389761359
29.75482415623317
29.6601300152747
29.05499068924864
29.15816386986594
29.15904681508006
29.05528752015767
29.69229403957457
29.60240850937405
29.59554813274854
29.68652966298945
29.6943034076551
29.60421021164919
29.59714096072863
29.33868792269104
29.24342214261942
29.33313156519236
29.24021298413053
29.34004079385635
29.24440491682411
29.33432009397
29.70439252236454
29.69636028584988
29.70528134735572
29.61402152067376
29.60520029451442
29.60591545046585
29.6132291313213
29.14592880515693
29.14359834779982
29.05080383033566
29.05014801103161
29.14377719189743
29.14573001125123
29.0508705355298
29.16342016122949
29.05664463635587
29.16308923316964
29.05675642001337
29.77774951642554
29.77795030433247
29.68074332771589
29.68092331460245
29.16436683009564
29.05709316279366
29.05708072803794
29.16441193769366
29.1464910772104
29.05031781996282
29.05106817991007
29.14430907376443
29.14428384610157
29.05105904815887
29.14651900299958
29.70791961067389
29.70779449166522
29.69863609388262
29.61626129936337
29.60804259562188
29.60794159736319
29.61637284924076
29.5804189487836
29.41661655953917
29.0862323797881
29.08582993067657
29.58358064850841
29.41591416319676
29.08576286094022
29.74528635539565
30.24518932945402
29.74960431438741
30.24095416226822
29.74932256074362
30.24085093375798
29.74546036116059
29.58050939873127
29.08625421008723
29.58395210391346
29.08579668906209
29.58372753066839
29.08577623322932
29.58064752489287
29.74417075071377
30.23555694450793
29.90550182566025
30.23352915479982
29.74182506913565
29.90714603251443
30.23574539018969
29.5796231148731
29.24990718874924
29.41350244051924
29.08537116144666
29.5777642633023
29.41429072510885
29.08564522939292
29.74426860874048
30.23623317180358
30.23491076097751
29.7419851664783
29.74188850525146
30.23613366388782
29.74441795661927
29.57970069703637
29.08567419990516
29.08537853901693
29.57789080962002
29.57781439792953
29.08565668414064
29.57981911477565
29.49441917587436
29.41317241770038
29.16698327814967
29.08529936847383
29.57728190545612
29.49434083046935
29.16700981172897
29.82088105324346
30.14763054067834
29.82010181561914
30.14681630294128
29.82017962069497
29.82078215457672
30.14776403589054
29.49388969484453
29.16680991842408
29.49341066627837
29.16668457612703
29.49345842935814
29.49382887141575
29.16683051815076
29.82182714940109
30.23285606201888
29.74135293135886
30.1490970088172
29.74126867583539
30.14903740103795
29.82187140840332
29.49447283303148
29.08530577945216
29.57739208845359
29.1670372463776
29.57732551614537
29.16702799327641
29.49450011048988
29.82094869998641
30.14688825612329
30.14790179044165
29.82025969752756
29.82023274336506
30.14785539268124
29.82098305527492
29.49393129844445
29.16669562583729
29.16685178129915
29.49350759547882
29.49349104326194
29.16684461326317
29.49395243238166
29.49280927563354
29.49306576324785
29.16645466704366
29.16656456786218
29.4931036832274
29.49277887059356
29.16646497118637
29.81871789592907
30.14477508875478
29.81834510993257
30.1443658777639
29.81837797790653
29.81867764224617
30.14483003398037
29.49256295722
29.16637327169821
29.49233526589298
29.16631130784434
29.49235533279233
29.49253835791331
29.16638161523527
29.81915448582654
30.14608971409651
29.81966494485735
30.14544824900372
29.81964357131402
30.14542494488281
29.8191716026487
29.49282996316915
29.16657332612353
29.49314263172373
29.16647554357975
29.49312952809546
29.16647198535097
29.49284044202523
29.81874523763383
30.14439635939512
30.1448862189665
29.81841154516807
29.81840027381669
30.1448673466912
29.81875907003721
29.49257966938568
29.16631593376561
29.16639016144327
29.49237583357445
29.49236894781426
29.16638728644001
29.49258812755269
29.49189924589107
29.49177793291236
29.16611844748737
29.16615263059539
29.49178747803906
29.49188786427124
29.16615651886118
29.81764270633326
30.14310400419625
29.8174625129734
30.14336754173237
29.81745717484275
30.1433587973749
29.81764907862017
29.4919069438907
29.16612065895708
29.49179718417216
29.16616048236456
29.49179392840306
29.1661591504168
29.49191083093642
29.81784233384468
30.14360193312251
29.81806215956332
30.14397084971
29.81808919684705
29.81781993813674
30.1436326435152
29.49202859064646
29.16619583590876
29.49216261901875
29.16625157733524
29.49217911421941
29.49201493437
29.16620049002044
29.81785749263782
30.14366391852609
30.14399593353177
29.8181167715313
29.81810751632332
30.14365342696805
29.81786514675915
29.49203783578878
29.16620523883925
29.16625538164775
29.49219594302754
29.49219029289654
29.16620364271069
29.49204250617955
29.49153130870571
29.49146085361677
29.16602874041065
29.16600818621731
29.49146582261229
29.49152549407034
29.1660307555916
29.81714798227829
30.14266338147229
29.81727395569741
30.14287029638007
29.81728716681788
29.81713678123958
30.14267879823171
29.49160563983675
29.16605392762854
29.49168234002672
29.16608529912711
29.49169039132595
29.4915988129771
29.16605628333763
29.81715553869965
30.14288256107026
29.81730058336722
30.14269443785349
29.81729608582435
30.14268919733496
29.81715934781697
29.49161024628501
29.16608716934218
29.49169857104113
29.16605867898354
29.49169582791896
29.1660578741394
29.49161256984369
29.81703234789444
30.14237020819946
30.14252406101353
29.81692665833957
29.81692389099158
30.14251959907961
29.81703558865497
29.49153522961806
29.16600935377095
29.16603280371903
29.49147086073708
29.49146917183121
29.16603211563521
29.49153720692261
29.81673878814872
30.14210685260967
29.81681631296965
30.14223157670775
29.8168232888804
29.81673282323466
30.14211510749416
29.49131037695559
29.49126649812421
29.16595307947346
29.16593969015086
29.49126912363156
29.49130728712378
29.16595418003614
29.49135636798886
29.49140362178825
29.16596895640035
29.16598813619279
29.49140787426618
29.49135273416867
29.16597023800724
29.81666681489984
30.14192184337083
29.81660021325078
30.14201831898271
29.81659866151185
30.14201589202277
29.81666857139845
29.49131248390665
29.16594034494321
29.49127189120586
29.16595531132644
29.49127094959446
29.16595492927866
29.4913135555899
29.81674281537557
30.14223806334262
30.14212347753177
29.81683035915774
29.81682798970686
30.14212067037415
29.81674484910533
29.49135882404961
29.16598914132631
29.16597154446763
29.4914121877177
29.49141074127466
29.16597110471945
29.49136006573281
29.65096826379247
29.04665741011757
29.04656435910474
29.59380451208017
29.08785673305827
29.08777349702244
29.59435583096226
29.75809033766454
29.91547714995828
30.2468787170896
30.25246069265186
29.75088618614955
30.25311373452731
29.92020070859184
29.5907735109166
29.4183600664449
29.08644118044914
29.253817538142
29.58497928547592
29.4207188556624
29.08731308487836
29.75845916835036
30.25481546292222
30.24784857867094
29.75143773412036
29.75110426116848
30.25446707743976
29.75902535221959
29.5910706275262
29.08742653746479
29.08646711482427
29.58541961126357
29.58515336842457
29.08735789566917
29.59152620221043
29.98736315998237
30.27305514215367
30.32007990244626
29.76139896118224
30.26443683595041
30.26680177277857
29.93073228419869
29.38543742413021
29.04653807554527
29.04627089733596
29.59344545690541
29.08792366079106
29.42610222516118
29.08771904786818
29.57426100185393
29.47505841800533
29.57576683753689
29.47379488754278
29.76646528564434
29.76400723406286
29.6706239765725
29.66841374392323
29.57254929072541
29.47073500436897
29.47235762804819
29.57061847623002
29.55813067405761
29.45845301868615
29.54429657353567
29.44936205396762
29.54585408659129
29.45991062482639
29.55639472569388
29.75302617898117
29.73788112812405
29.73630203070677
29.65640533439472
29.64395273986404
29.65796959376017
29.6425390024698
29.73452050580288
29.73252853711615
29.74709123441883
29.6546339387964
29.63915594585207
29.64094265906553
29.65264468679613
29.55967502059394
29.46234884686474
29.45052757733942
29.54847482602564
29.56103768717417
29.54724443120501
29.46120631759388
29.66410519014364
29.66206089372522
29.65117314355473
29.40005408376489
29.39393749241328
29.39299352831699
29.40135720585175
29.31215833862504
29.30731228158503
29.04762785143737
29.04665764006976
29.30656918401535
29.31318584633396
29.04747778747633
29.3252117269113
29.0491706811665
29.32361212143017
29.31450437898221
29.04799086265
29.31565110678264
29.04782323742514
29.41076939856253
29.66567044978444
29.68118152091812
29.57962416424146
29.41363813108989
29.40243149128186
29.4917156408264
29.65058469341374
29.64856894884882
29.6547955012515
29.3995361132508
29.39134198863129
29.39262085789182
29.48208472002258
29.31174978132939
29.0466148828262
29.21907695720975
29.13419236194376
29.30627577387381
29.22137986571353
29.04741809670802
29.32069562735157
29.04907595511964
29.32296659774502
29.31404703078698
29.04787829907474
29.2260271637544
29.04775635156706
29.57820741756754
29.47615870091111
29.57707874082785
29.47710515393273
29.77593572248047
29.67821037614058
29.67911631185459
29.57916238994805
29.4785691841973
29.47790621167884
29.57995186085902
29.56412288892241
29.46553713770716
29.45390034086695
29.55192485751969
29.55127179161579
29.46493426503126
29.5648416977335
29.755869775896
29.73926547793458
29.74046223053378
29.66051554404058
29.64519124815233
29.65933664949681
29.64626136036221
29.56325374102621
29.46334625848896
29.45323950244797
29.54955208884821
29.56222782231437
29.55048251534765
29.46420587112344
29.75790872257491
29.74231803352441
29.74147786533357
29.66151436296031
29.64792029525392
29.64716925198792
29.6623400855342
29.66616411322854
29.65448754786143
29.66657718147612
29.40266688064473
29.39509014877349
29.39489668696665
29.40292941895459
29.66465318118445
29.65397783579738
29.6658890237787
29.40249203457679
29.39419192548177
29.39476802809811
29.40170604115187
29.31421803650651
29.30821945674443
29.04687593620483
29.04780881586288
29.30806720350984
29.04777856531356
29.31442492902242
29.31408025662429
29.30751254844847
29.04686117143805
29.04766799947773
29.30796595447919
29.31346081639946
29.04775844296496
29.32563398110046
29.04960528501782
29.32657681302923
29.31664507172867
29.04803557653297
29.31595709930631
29.04813610198394
29.04963582648014
29.32709784647475
29.32678523208603
29.31679786701175
29.04819196941158
29.04815843133072
29.31702720907542
29.671130930028
29.69036390774866
29.67158756069274
29.41886554758369
29.41846984125245
29.40591869453231
29.40620956770723
29.52628781454314
29.5339444842046
29.43160027034834
29.44036421925462
29.5353397315616
29.43264574273931
29.52503928649362
29.71205236246777
29.72475610484201
29.72332995239973
29.62026208686628
29.63187104063778
29.63059562180885
29.62141108450586
29.51946294894936
29.5133588557623
29.42097524957363
29.42758108239053
29.51255270533564
29.42683111160872
29.52036028039344
29.69242655773798
29.69113786953379
29.69947572975869
29.61012474638881
29.60125939332092
29.60240943975746
29.60883970210118
29.72172530378614
29.7199366134122
29.709004434208
29.61897166865828
29.62755711796577
29.62915945282593
29.61753623779632
29.51845709881117
29.42505602458372
29.4202220600383
29.5106530444593
29.51165115873579
29.42599006706265
29.51734060892163
29.52740942516129
29.44141084707584
29.53769826692594
29.43441924218736
29.53658930332735
29.43358438660279
29.52840751296589
29.2430015127345
29.33733803489936
29.34437348916923
29.24687578576058
29.33816651757041
29.2475479994237
29.24240131453659
29.23958049703742
29.23654605325396
29.32880802152686
29.33408715097933
29.23616101054282
29.33349373246282
29.24000992942473
29.14765383360415
29.05154768622334
29.15078881402164
29.05239582972008
29.15046601723916
29.14794368334257
29.05145045811204
29.14494927590123
29.04985351282089
29.14260959874592
29.05043328233777
29.14289877681202
29.14462496648644
29.05054201570144
29.23909863074467
29.33208838783847
29.32821225741582
29.23525230133932
29.23573000019159
29.33282801901995
29.23856309842012
29.24353994924615
29.34520306899629
29.33957101527011
29.24868189697629
29.33890999741448
29.2481490975436
29.24401854146607
29.14732770703464
29.14969443402
29.05227365894062
29.0512191499206
29.15010181150998
29.14696410210103
29.05134108535541
29.26743082233689
29.37241269137101
29.37140976469863
29.26815829168843
29.16176182444777
29.05600832494416
29.16119417975216
29.05619873667098
29.26660270573135
29.36897896757776
29.37026838740324
29.26566677888372
29.25915170822757
29.35900601340439
29.35162988677515
29.25212215361045
29.36016356835963
29.25287416397221
29.25831182424361
29.1576487634246
29.05494655723987
29.15412107684253
29.05350457610312
29.15376212341202
29.15804715759262
29.05481278979777
29.25989752017723
29.36209825864965
29.35255432334194
29.25413659448545
29.36119190623026
29.25354432033609
29.26055467700616
29.15719661102668
29.05449022329741
29.15290006229613
29.05336830227903
29.15335594654609
29.1566873171825
29.05466107497634
29.56040117464297
29.4621215009665
29.56336169357954
29.46462221131161
29.73559725034979
29.72230356178105
29.62995339894611
29.73888775950063
29.7252115497377
29.64525589641003
29.63257597962772
29.45081267357467
29.44128832734262
29.53625048255471
29.54993037682758
29.44322333841932
29.45301350993413
29.53854765714668
29.75820371500593
29.76125902044598
29.66318360282156
29.66593914661339
29.56604057715478
29.46891425069031
29.56845408847102
29.4668815217447
29.55230545361755
29.44499249649843
29.45682414593758
29.54256446684611
29.55445662442625
29.45501424474587
29.54065043100775
29.73031805333316
29.74462422657236
29.72788133003003
29.64796710449645
29.63717095045854
29.65042626617425
29.63497996312918
29.36211702792771
29.26212941936928
29.36411233832425
29.35292454146355
29.34521154684277
29.24821342495005
29.2551681405104
29.34675224983297
29.35467881567675
29.24933356440483
29.15400392005405
29.15052802625355
29.05241901618428
29.1547794175785
29.05264754172861
29.15120826514722
29.05384978748714
29.15984224651859
29.05579426863384
29.16055611676712
29.05555467203451
29.2634390555537
29.367530940814
29.26461510477869
29.36591280489252
29.25632622946617
29.3481595414583
29.35771148233745
29.25128414591567
29.25737204162331
29.356271832367
29.25035595719383
29.15548259697552
29.0528558933949
29.05429896104726
29.15239188477737
29.15611725351597
29.15182880214457
29.0540859354011
29.61028999243655
29.71084702545094
29.61939038144092
29.70319712968148
29.71341656022486
29.61233039170399
29.62170312531398
29.43320561670174
29.52681458395747
29.42630038102746
29.52050339431504
29.43490664101892
29.52883687723402
29.42779645140322
29.50568804554667
29.42036456671676
29.41523204531179
29.5133123041006
29.41639313926177
29.50707408503923
29.42168167254718
29.52214933324032
29.4364699429089
29.5323985629436
29.43044510311796
29.5236606817755
29.53069732578581
29.42917776519662
29.69617092330054
29.68972525213968
29.6978950618103
29.60588313421289
29.59999789802017
29.59862483860002
29.60742622087134
29.71795856161168
29.70723583683358
29.71578642479154
29.61421779980167
29.62578333916048
29.61595250978417
29.62383330747039
29.51476906322042
29.4174733937244
29.42402731676411
29.50955755129701
29.50836440661374
29.51611168217441
29.42290271807522
29.05059848098876
29.14759951100073
29.05143388424166
29.14563759820781
29.05163419386202
29.14819600571319
29.05077413635282
29.14116529230926
29.1429910482705
29.04988523531969
29.14345060871497
29.04940784477256
29.14156944947497
29.05003942826418
29.23586686905444
29.32836838802604
29.32425996339698
29.23662489072384
29.32518039714029
29.23353482775306
29.32941359581061
29.24100849482151
29.34128310254481
29.3364221315226
29.24612962414831
29.24173751834534
29.2453068025001
29.33541668512149
29.14387606772852
29.0495337879906
29.14229175500124
29.05031339179237
29.14194503735882
29.14426741227768
29.05018214456687
29.2373268922585
29.32603632169095
29.33127341008494
29.2347273535324
29.23415484681267
29.23797280317371
29.33038199944609
29.14611997009781
29.05181785178085
29.14924211277353
29.05108424489048
29.14656186569692
29.14874314847965
29.05093600018566
29.53069429577452
29.44445671103081
29.54082166545943
29.43677948168093
29.54022926474309
29.43633091001687
29.53123092659848
29.71545406870257
29.72600925528346
29.72709464150577
29.62329941523426
29.63299101895284
29.63396058369335
29.62242233423166
29.52183847668438
29.51407099293415
29.42824201254184
29.42276011505159
29.51469058926441
29.52115136298847
29.42881592805025
29.70603889140695
29.70666738293254
29.69761469898874
29.61469667266892
29.60703225379771
29.60652561566643
29.6152567264212
29.53004674050025
29.44385820923767
29.53867155164417
29.43515335914469
29.53951380168157
29.52928551082945
29.43578967336787
29.72878085853397
29.72801708873522
29.71698386407544
29.62404567710878
29.63546635882681
29.63478434525531
29.62466411095625
29.52242380037181
29.42971022670953
29.42320115690178
29.51565790635183
29.51521910679102
29.42930475440509
29.52290930801067
29.24511380224538
29.34761569724151
29.3414391183117
29.25018131494535
29.34108403893162
29.24989664820177
29.245370919944
29.24071659273061
29.23688593406919
29.33460997316313
29.33021908749774
29.23718148609764
29.24038820701503
29.33506388190957
29.14841920140817
29.05163317815425
29.15107186780656
29.05268150427411
29.14819842863112
29.15131676031138
29.0517073126891
29.14609813134081
29.05019917073183
29.14405633848554
29.05097455613166
29.14392970532984
29.14623863403795
29.05092737839911
29.24480371665798
29.3471416663705
29.34015210450086
29.2491491008182
29.24443919025515
29.34065569560908
29.24955324610805
29.24099627663039
29.33577116390295
29.33056765112872
29.23764277233875
29.23743351925248
29.33545046963025
29.24122831856184
29.1486070403834
29.1516975981476
29.05275157831157
29.05182283278849
29.15152492885508
29.14876284056268
29.05177044013472
29.26933665584708
29.37328581566781
29.37403695385383
29.26879159731758
29.16370136023142
29.05693262187776
29.16393586398158
29.05685205541534
29.26979889515738
29.37520067221013
29.37467318102867
29.27018306891795
29.26204197094232
29.36462786942245
29.35522774517633
29.25579683127963
29.36414895160672
29.25548190606783
29.26239008185111
29.15869482758767
29.05506348350308
29.15443510270043
29.05382186862523
29.15839488503035
29.15470635937611
29.05516459900088
29.26162253382238
29.36288927056289
29.35470389525418
29.25465470614246
29.36357100601704
29.26112815784507
29.25510209968899
29.15894962589186
29.05532308118082
29.15512811400444
29.05389963214748
29.15493680767258
29.15916153959312
29.05525087994651
29.77734592010216
29.77674149708683
29.68038092354476
29.67983857684255
29.58137331671237
29.4798999457781
29.47976775349023
29.58153040124391
29.58105615629867
29.47909955005824
29.58058207840169
29.4794996336255
29.5658458368561
29.46601880072803
29.55244558598463
29.45521200960403
29.56541512329697
29.46638129922045
29.55283624510252
29.75974528597747
29.74398970080354
29.74382283428977
29.66382138969148
29.64941592323775
29.64926661151065
29.66398551254073
29.75864369437014
29.74298726950066
29.74348852780152
29.66349178294944
29.6485187564531
29.66299816229967
29.64896729630497
29.56613371196548
29.46674409863209
29.45543124347362
29.55322714396706
29.46662387847761
29.55309713200546
29.56627679803065
29.16427019451052
29.05699845823414
29.16412557696332
29.05704857058544
29.2708856275312
29.37626482651679
29.37615954936491
29.27096185748928
29.27072767033165
29.37562393553888
29.27049248660988
29.37594440127621
29.26288066570671
29.36501127151833
29.25604885167118
29.35626941969217
29.26266942277222
29.36530051579524
29.2562387244358
29.15954730826085
29.05546615650381
29.05408088634652
29.15551154164946
29.15547404372021
29.05545407219812
29.15958851178678
29.15946113551916
29.05538146226159
29.15528141273525
29.05405540469152
29.15933202990873
29.15539696066118
29.05542552411957
29.26302220289885
29.36558986772715
29.3564439554037
29.25642839560736
29.36549429769892
29.25636573932602
29.26309137643406
29.24573031820342
29.34172250449455
29.25040876161658
29.34855749986126
29.24557621437366
29.25057971869805
29.34193512729044
29.14643495523813
29.0503009452229
29.14415745371929
29.05101219980932
29.144233273973
29.14635081417516
29.05104037082644
29.14904295840135
29.05192653962464
29.0529140674348
29.1520426684836
29.1520086184366
29.05191660342917
29.14907382254081
29.24164527508152
29.23806051217734
29.33137684991244
29.33641117793931
29.23801874219071
29.33634717608094
29.2416915650727
29.2415525236041
29.33602712064039
29.23780985110248
29.33126128183256
29.23793514189918
29.24141356449806
29.3362190668719
29.14898066648765
29.15183564586622
29.05186465164818
29.0528911703417
29.14888727225131
29.15193940983406
29.05189593803751
29.24583322678551
29.34871486393931
29.25075065550698
29.34214795698501
29.25069395977403
29.34207710729549
29.24588448190822
29.53197957663567
29.54129397675424
29.43713732531978
29.44564452914684
29.53165886687844
29.54164805543119
29.43740565183495
29.69840924526219
29.70716870359696
29.69806893623257
29.61603814851524
29.60743661661298
29.60773959554308
29.61570347040463
29.71822635361048
29.7303007574644
29.73014898197143
29.62577282764638
29.63682437082438
29.63668872481409
29.62589590914062
29.52378047003531
29.51653315532021
29.42422482543328
29.43051900294669
29.5164456395619
29.43043812516827
29.52387723847588
29.72938942572565
29.7175365528201
29.72984514436349
29.62552652338002
29.63600989853437
29.62515717209993
29.63641710694336
29.52358688113315
29.43003376615441
29.51600813966406
29.4240786850377
29.51627060723848
29.52329663349241
29.43027630163123
29.53219353794246
29.44584268251442
29.54200233254071
29.43767420162984
29.54188437179918
29.43758475336192
29.53230043789961
29.80113614665034
29.79534578844158
29.7770096580198
30.07124928453943
29.94805293099184
29.966889195394
30.04082570329854
29.8132563794408
29.83404552426081
30.1176355090538
30.08487674656219
30.00557507680181
29.84425537610892
29.84210296666526
30.12800458383689
30.13324631625492
30.10962641333344
30.09766803130904
29.80413189441827
29.80114352831888
29.79077113377716
30.07886807858728
30.0459102469266
30.04267771514324
30.08280218526798
29.75264077517198
29.76945432482623
29.75418710992563
30.00956385445596
29.94018416208878
30.00667871282187
30.03206501180448
29.73612999642734
29.733899748874
29.99341742015208
29.99118711865037
29.7407327621029
30.00004436460071
29.99784792022847
29.75614538904425
29.75363793286913
29.77360984612237
30.01209071916949
30.02835708583175
30.03373161547343
30.01515828888252
29.75096819935263
29.74871174845678
29.73678134949317
29.9919945820626
29.99342572201363
30.00103405460173
30.00278347411668
29.84782710141378
30.13540426966351
29.86927222322572
29.85048710076939
30.11952649018689
30.0994652341539
29.80537323150744
29.80736854836054
29.78672532579308
30.07437488408666
30.05914832401822
30.08443770008203
30.0512505765046
29.8529014962728
30.14276308954239
29.85330293004987
30.12168166107944
30.10562988956007
29.80918967047064
29.79804636848031
29.80964348653695
30.07510457802722
30.06365543486672
30.05185621096302
30.09006644632878
29.75681626750847
29.75832720948145
29.77818471165379
30.0173207472171
30.03136765271566
30.01598097340228
30.0321195790502
29.75324286634793
30.00109429749496
29.74045200624419
30.00124936688845
29.75369941268376
30.01213488705823
30.01241678131656
29.75157341245612
29.73988729553062
29.75293884146392
29.99916854852982
30.00016703689155
30.00531500796749
30.00979523649438
29.7586631582745
29.77954345534405
29.75916738337786
30.01856004268734
30.03399764165091
30.0420420297906
30.01887030626056
29.05466209179288
29.15718761375494
29.15611297377323
29.05430000827856
29.35991481469428
29.25730633556443
29.35749524773599
29.35100218047622
29.343534112025
29.24699291566326
29.25096445049652
29.3417186563355
29.34890694131121
29.24567089411564
29.15315277027009
29.14978641202478
29.05216967098065