/*--------------------------------*- C++ -*----------------------------------*\
  =========                 |
  \\      /  F ield         | OpenFOAM: The Open Source CFD Toolbox
   \\    /   O peration     | Website:  https://openfoam.org
    \\  /    A nd           | Version:  7
     \\/     M anipulation  |
\*---------------------------------------------------------------------------*/
FoamFile
{
    version     2.0;
    format      ascii;
    class       surfaceScalarField;
    location    "0";
    object      phi;
}
// * * * * * * * * * * * * * * * * * * * * * * * * * * * * * * * * * * * * * //

dimensions      [0 3 -1 0 0 0 0];

internalField   nonuniform List<scalar> 
36671
(
-5.880202477861772e-05
2.601672304328776e-06
0.4491175988357022
4.930487803669675e-05
-0.4491106983774138
7.640038002353114e-05
-4.052559234390962e-05
-1.427450512014872e-05
-3.859746708476108e-05
-1.478774554430906e-05
-1.796140808582699
5.643721854069145e-05
-1.795987687770712
4.234013861949029e-05
-1.795875283392981
3.194009529736428e-05
-1.795792450803816
2.399702111977727e-05
-1.795731209021326
1.769677196264131e-05
-1.795686109745546
1.24862654392676e-05
-1.795653464639436
7.978854889334052e-06
-1.795630796988064
3.891286162491338e-06
-1.795616489130808
-1.795609564971564
-2.584065999393508e-05
1.204551645907423e-06
-0.1123041619466622
2.599818980371232e-05
-1.981949196664798e-06
0.1123047818144105
-0.0003620135704534913
8.703236720898965e-05
-0.02842218753446928
0.0003168054991352656
-7.837585910850623e-05
0.02845873909769032
-0.0001371762708817778
2.846676508468852e-05
-0.02825146234180363
0.0001228187541149478
-2.521782584414559e-05
0.02826257091932812
-0.0002333055474132017
0.1126887647861601
0.0001949299315474291
-2.902656315803672e-05
3.75652727508102e-05
-0.1126589278798776
6.602879507902256e-05
0.1124223020411392
-7.42997779932973e-06
-7.584144011119061e-05
9.727873601837814e-06
-0.1124147872919039
3.960636677646789e-05
0.1123546831767186
-4.473062503862479e-05
-3.879764035298417e-06
5.10068993975186e-06
-0.1123507798443644
-2.827721031919695e-05
0.1123129645752403
-2.093831623888712e-06
2.596379776065192e-06
-0.1123110305732204
-2.200807918664424e-05
-0.0003259910889007257
2.742416498868683e-05
0.00731928055573463
0.0002962425754475322
-0.007294948128082089
-7.174058076481786e-05
-0.0005898228635729313
-0.007670501477045598
8.101807656640089e-05
0.007731098375118628
0.0005199484697006694
-0.000596732647878202
-0.007677597265101769
-6.253395506383988e-05
0.007738916924073923
0.0005262063631843157
-7.958907114407543e-05
-0.007723733345516879
-0.0006714745980189517
9.004706781268047e-05
0.00779492708327486
-5.940691814148112e-06
4.680908755505122e-05
-0.008066245319505009
-5.394158803125583e-05
6.735545663915208e-06
0.000508665934594225
-0.00764219654831258
0.0001638650763921491
-0.0005801733946697728
0.007703610309184716
-0.0001537713771885944
0.008147392428271557
8.055503064073062e-05
-0.0003119021640923804
-0.00810801714884867
-7.469630955246107e-05
0.0002666681635811135
-0.007731495489767129
-0.0006790804237230025
-6.926227737739527e-05
0.007803516471814072
4.735793520141527e-05
-0.008077933865852436
-5.455406866751968e-05
-5.160490253989108e-06
4.920525554334391e-05
7.219079296086102e-07
-5.659880651406151e-05
-0.008116174236560384
0.0006192559835448105
-0.007757422494581562
-0.000703504198668315
9.699358063442821e-06
0.007831974660318255
-2.924713533285903e-05
6.860851610713835e-06
2.525129190799511e-05
-0.02859812698621699
-6.18368573296613e-06
-0.0004124973320210885
-0.02844914641430335
1.225730150833118e-05
0.000358905900983246
0.02849048551397239
-3.353177699983643e-05
9.737841175202612e-07
-0.02864906353513591
2.877073965040649e-05
3.156659617118809e-05
-0.02826699069833857
-2.832500671678415e-05
-0.0001530167780379534
0.02827958961599871
1.034700137887686e-05
2.36137631132916e-06
-0.02832521285880055
-1.15301573985851e-05
-2.115793858953739e-06
0.0001495104052923356
-0.02827827518870528
-0.0001679441957363713
4.35166676501639e-06
0.02829236032124192
1.135645039051862e-05
-1.271344700735578e-05
3.282936157860785e-07
-0.02834250260568984
2.059666380353869e-06
-0.02830261067550844
9.842942705083356e-06
-1.84344310420428e-06
-0.0002813562182847305
0.1127579052451201
-3.638204481064154e-05
4.694374268011891e-05
-0.1127204162722127
3.569702712545169e-05
-4.329741656401873e-05
-0.1128038777552867
-5.58472667053422e-06
7.202120364348997e-06
-0.02826155378675543
3.813363052201198e-06
0.0001330013426380172
0.0282742523116936
2.85264687467505e-07
-0.02831769304406873
1.075926250977264e-05
0.000246600490990037
1.260334365299177e-05
-0.0002989200570789512
0.1127772247636987
-0.1127375008051939
3.777479504533085e-05
1.938424774760604e-06
-4.60576719697903e-05
-0.112826003475389
-0.1127250853224347
2.969410365722138e-05
-4.434534453426823e-06
5.734324402037909e-06
0.0001184360396589359
-0.0001389478310872441
0.1125392726320786
-1.551626207229369e-05
2.020334941261202e-05
-0.112523447927984
1.790608645009395e-05
-2.104260286386645e-05
-0.1125582428857381
-2.352607035376521e-06
3.061594274110837e-06
1.002159285230136e-05
0.1127042871635524
0.0002051362247106781
-0.1126728374906083
1.535117968523452e-06
-0.1127426299107199
3.127681455630452e-05
0.0001233467534212334
5.318665415557995e-06
-0.0001451583165483147
0.1125476950057127
-0.1125311967094369
1.865343465497878e-05
8.091715191129543e-07
-2.199274624325052e-05
-0.1125674895720135
9.987916095974452e-06
-0.1124311894429315
-1.128998590615987e-06
-1.145877587531353e-05
1.477613771821533e-06
6.810180085630024e-05
2.531394130678665e-06
0.1124263795544014
-7.838554596473375e-05
-0.1124186231431246
1.02989637689177e-05
3.863595665236073e-07
-0.1124355568694497
-1.184151293998921e-05
0.0001015410722667443
0.1125033123052663
-1.278310252128175e-05
1.66708382547019e-05
-0.1124903050737007
1.533748454311833e-05
-0.1125188441903937
-1.93694251217892e-06
2.524802269477024e-06
0.0001054556423628861
4.374007739095895e-06
0.1125102751745661
-0.1124967530667895
1.593057097085757e-05
6.651641673496444e-07
-0.1125264334074281
6.060491790058028e-06
-0.1123592564602287
-6.818001216072322e-06
-5.974770810283295e-07
7.851766862873613e-07
5.774642329438863e-05
0.1124019877731186
-6.272700654027896e-06
8.221849295532682e-06
-0.1123956545500846
8.751310559748109e-06
-0.112409457699556
-9.554842125814821e-07
1.251949422354013e-06
2.134575987966557e-06
0.112405436402037
5.944762440179829e-05
-0.1123989130055385
3.266956873627158e-07
-0.1124131334146643
9.006092188474175e-06
4.059635152657696e-05
1.316464743410323e-06
-4.590435872131593e-05
0.1123568277258968
-0.112352833102122
6.209003815897295e-06
2.039632374777695e-07
-6.993719981798585e-06
-0.1123615067750698
3.521234482128924e-05
0.1123424206117374
-3.325202609145211e-06
4.374530158710881e-06
-0.1123390759174381
-0.1123155351999703
-4.38683329184476e-06
-3.276853579016868e-07
4.226208980469316e-07
4.007577341886596e-06
-0.1123463366317541
5.412321864117609e-06
-5.142237977267679e-07
6.760489698191161e-07
7.460498438943683e-07
0.11231416597224
-2.88554014739915e-05
-0.1123120855974946
2.603122212541109e-05
4.068877720002016e-06
1.161929627301604e-07
-0.1123167271596195
-4.47596952266859e-06
1.128176148191829e-06
3.605711533623132e-05
0.1123442641447383
-0.1123408502238981
1.75706221099496e-07
5.539438545742835e-06
-0.1123482569765208
3.134541008405363e-05
-0.0002376881948520523
-0.007379672006272133
-2.756005771306814e-05
0.00739910671716388
0.0002144681315879435
0.0001020496722567849
-0.02845321951179022
-9.197389842609826e-05
-0.0004152641250910218
0.02849639429256261
8.135388059724309e-06
-0.02866336314682676
-3.406266782633147e-05
-7.337576784716836e-06
-0.02848365826031361
1.441069563037251e-05
-0.0004760029549998208
0.02853275854974037
-3.930417033103252e-05
1.157108530363533e-06
-0.0287238307807624
6.303471105572766e-05
-0.0002984362765006406
-5.837944710344681e-05
0.007301282904179493
0.0002715311834374682
-0.007279033075070634
-0.000234707724089312
-0.00737628496562606
3.506509824410846e-05
0.007395478245209228
0.000211794756318714
0.000685004075104628
0.008441692437480242
0.0001259295985934997
-0.0008070939721185049
-0.008332432464218678
-0.0001130996748422512
0.0001708407944357245
-0.001349672694974461
-0.0001509328577441359
0.001160249265370133
0.008214420921081659
-0.008044905428171099
-0.001333692043374661
0.001145517288608495
0.0001917029087144692
0.008196876180907855
-0.008029563540439167
-7.79259525175794e-05
0.0007123881401498439
0.008504193614994706
-0.0008371054341852149
8.913215736678428e-05
-0.008390682525809665
-3.470999195896094e-05
-0.007402792733421083
-0.0002607588820020878
3.886345108559936e-05
0.007424690432187076
-2.518188689332217e-06
1.742243552203746e-05
-0.007502476903120543
-1.947740418639484e-05
2.820319023286467e-06
-5.333589228065644e-06
-0.007959153932443553
6.034454167592197e-06
4.081117763103189e-05
-0.007596433664392319
0.0001448728484575317
0.007648651220249245
0.0004479042857801687
-0.0001363287555208107
-0.007472250962372346
-7.00392766477439e-05
-0.0003385818269836361
0.0003023191324720678
7.542394964620937e-05
0.007503128983884433
1.508059320988618e-05
4.709175632684074e-06
-0.007451373445403272
-1.682512508695647e-05
-4.475974414102692e-06
-4.036752391443422e-05
1.099688391193764e-05
3.514092691584021e-05
-0.007845286438894861
-1.031529580495652e-05
0.001392067368142938
0.00010544210518226
-8.672887965306041e-05
0.00838226276052554
-0.008170590248055063
0.0007328172244779791
0.008553204164384477
-3.710477829076838e-05
-0.0008590696046476005
4.682115231527562e-05
-0.008436668158239895
-0.001374838361020297
0.0001319045562776274
-0.0001136681023603956
0.001183593289701418
0.008243538298011941
-0.008070529680609222
0.0007190394691947055
0.008520137911097925
-0.0008443295572624953
-6.717517954383106e-05
-0.008405598596023725
9.612804344695804e-05
-7.91856235706276e-05
0.00119978370569745
0.008264484402348555
-0.008089143159794728
-0.00741683642872968
0.0002458118335100602
1.756513825338581e-05
-0.0002731158814866824
-1.319490970051808e-05
0.007439770248152142
-0.00740651779428842
-0.0002640794093324276
-3.049257433177192e-05
0.007428691591098004
1.841257865973645e-05
-0.007525034620407385
3.220477733103986e-07
-2.058485780292883e-05
1.764410961932471e-05
-0.007507474714337289
-2.211603931417701e-06
-1.97261372924085e-05
-0.00796966296235644
-4.641741215906866e-06
4.130240854678662e-05
6.536100660779357e-07
-0.008004591266291718
4.296526878201414e-05
-0.007701575014941594
8.803648165025074e-06
0.007765162949013697
0.0005468677736140599
0.008283663100732645
0.0001121711998129685
-0.00819521385140241
0.0005855110919762102
-0.0001011274660331124
-9.775528081935254e-05
0.0007672801669635291
0.0001110604263656832
-0.0008801527139167417
0.007943027595606047
-0.007843460194197968
0.007974141385236808
-5.129400235087882e-05
0.0003968311553685191
-0.007922011064321522
5.81140126529735e-05
-0.0004557814865849492
-0.0007464240248254059
-0.0001120393514719102
0.0006525891045444217
0.0001242256067966113
0.00784269942284517
-0.007761050757888521
-0.0001246849511260767
-0.0008572100651202989
0.0001386199317710749
0.007918069349046732
-0.00782121828941545
0.007933449939176605
7.914827586299766e-05
0.0003787182335564123
-0.0004355855111613783
-7.205944178440535e-05
-0.007883671495646154
0.008339847824849195
-7.029797271062701e-05
8.020170966266903e-05
-0.008247725831708647
0.0006103624100400708
-0.0005507581752408124
8.901656451676836e-05
0.0004696938149780617
-8.019903617215649e-05
0.008355909932630063
-4.054370976522474e-05
0.0003164660207998367
0.008016373160428397
4.594912604024174e-05
-0.0003641032122845667
-8.50983209752717e-05
-8.173340413962191e-06
7.273140223950545e-05
-0.00850384377570247
9.33454092699848e-06
9.200905245649843e-06
4.465801448484395e-05
-8.367438442537496e-06
-0.008021379562396236
-5.153217920443375e-05
6.265656581557261e-05
0.0003020482818191176
-0.0003480123158567103
-5.701924992956399e-05
0.007973776657309004
-0.0005726291395683727
-5.566419231194557e-05
6.353422974508131e-05
0.0004895282462491616
0.008415078680719345
-8.178862904408024e-05
1.311327126638176e-05
-0.008441117027986205
-1.18020976502838e-05
6.973924948495404e-05
0.0001000182246483827
-0.0006504098273304624
-8.976176319173919e-05
0.008531087628077754
-9.069832309529574e-06
-9.996979872131973e-05
-0.008705747016670944
1.038573032009834e-05
-6.174282570246017e-05
-0.0006743903836229856
7.06552559069975e-05
0.008597042428811177
1.474490688544195e-05
-9.633421476543278e-05
-0.008635686544954151
-1.321765576053288e-05
0.008227445474967055
0.0002814053640873053
-0.001129964150486809
-0.00807885184739637
0.0009577961429674969
-0.0002578309841403954
0.0002475818595444268
-0.001022981689472298
0.008368240243539039
0.0008610185356779229
-0.0002264134743405889
0.008415752922323138
0.0006729372562877697
0.0001393400036027821
-0.0007937339415793408
-0.008308366642061873
0.0002603485852225136
-0.001268633657968457
-0.0002364648798876997
0.001086223510149792
0.008132185550684085
-0.007973659108200606
0.0005211997009400798
0.0001399780985189838
0.00892455397889084
-0.008831669840337123
-0.0001265194552589496
0.0001218073404464838
-0.008596999025546264
0.0004359687023798618
-0.0001109191822014404
0.008671341865846468
2.485480809213202e-05
-0.0001047102722938445
-0.008715037068046504
8.826958277995931e-05
-2.260060303913457e-05
0.0005411262749231794
0.0001107630335140472
-0.0006397439219769348
0.008503625760481573
8.034880954875676e-05
1.63511036258101e-05
-9.474267216485667e-05
-0.008606422040237947
0.0002107567292072967
0.0006647723216874843
0.007831145574469204
-0.0007653906593440525
-0.0001963935040885039
-0.007744890461932745
0.0005377985436812895
0.0001657576732292041
-0.007913306287540727
-0.000624810357007381
0.007988659237988315
-0.0001540988103513309
0.0001454529679815337
-0.007832831529465015
0.0004656879165421811
0.007895275785134269
-0.0001357865965294305
0.008260480192183959
0.0001235867185200707
-0.008173635018382827
0.0005746765637474476
0.0001433474243299034
0.0005382722666260592
-0.0006138759101738971
-0.000132726080384691
0.007735124671911562
-0.007670142372308431
0.0001818362548506085
0.0007030963423247979
-0.0001672713684757061
-0.0008088792548078995
0.007870072172963255
-0.007778854146852958
0.007916924613273365
0.0003710618999340783
8.627001942075152e-05
-0.0004269642090127897
-0.007868144047771744
4.889425529389943e-05
0.008171323859891451
-0.0001894307032287408
-4.531375370296831e-05
0.0001619187699975146
1.253683528658209e-05
-0.007937976356555862
-4.663179932093834e-05
-1.171829960241891e-05
6.168155978617044e-05
0.007921685144235116
-0.000229510699427253
-0.007894912754155329
-5.768870554342968e-05
0.0001987454551041381
9.814954231559244e-05
0.0004610495629659427
0.00833142392630278
4.37515063513734e-05
1.004134619804025e-05
-0.008003088779636916
-5.05084967968192e-05
0.0002959530064850901
6.832775401556595e-05
-0.0003411433000034933
0.007956443718560592
1.447615259910598e-05
-0.00841508353324532
6.844717506363015e-05
0.008384745175962919
-3.370546081236288e-05
4.247668365364207e-05
-0.008289934925215531
0.0006292357508785905
0.0007756216757322851
-8.476197307504492e-05
-0.0008892635468444674
0.007953377862163118
-0.007852729298814341
0.007984769921821613
0.0004014010785174266
-0.007932049788217158
-0.000460830668885867
-4.458454560318203e-05
0.000607580653210933
5.906892287603615e-05
-0.0006909470191624403
-4.900299103964421e-05
0.007817252599615953
-0.007743952165500589
0.008354273984574419
-6.073299908650188e-05
-0.008261256257249673
0.0006164567682193433
7.206063699963144e-05
0.0007885471026185249
-0.0009032761892867497
-5.962237689127609e-05
0.007969777411085833
-0.007867486584527104
0.008007925764128444
-2.507184302526799e-05
0.0004112405935986112
-0.0004716190271404177
3.148292087793376e-05
-0.007953958408440324
-0.0005891902454796588
-2.665860644285717e-05
3.36027492823897e-05
0.0005047541507833139
0.008462237127805184
0.0003201075252859809
0.008027481866457176
-0.0003681325828003455
-3.52305969132024e-05
-8.594134752519736e-05
7.349049548791182e-05
-0.008519898515510381
-7.055329536653846e-06
-2.899373021489777e-06
4.856849122409611e-05
3.641199685376787e-06
-0.008103415081680415
-5.591057935340014e-05
-0.0005779638626792121
-4.807235090615756e-05
0.0004944077357364743
0.008430238270086729
-1.980006348004502e-05
0.0003279810456452467
-0.0003767924179255035
2.48669392347355e-05
0.008051670260637427
-8.794750184226726e-05
-3.910437280946879e-06
-0.008553962039297093
4.929214710760502e-06
7.522418813998436e-05
-2.936372246033314e-05
-0.0006923193747224119
3.706072404254332e-05
0.008648636292019216
-0.0001009049723679037
-0.008723566674727564
-7.81164501438174e-06
-0.000680195376490368
-5.320346364907134e-05
0.008613830062821116
-4.309367126360464e-06
-0.0001032947743465528
-0.008760856638941576
5.438922912831416e-06
0.008559143751910267
0.0007355205537057581
-0.0008618233247505572
-0.008442324849278548
-2.762090989228145e-05
3.096053583837492e-05
-0.001406018808146407
-1.542926689975111e-05
0.001213907440115083
0.008281461453729407
-0.008104881354635609
-0.001404584329920832
4.669868152270147e-05
0.001212282438456738
0.008279795869998236
-0.008103232124235573
0.008565984044302562
0.0007390953462920175
-0.0008652548080225353
9.129207358458575e-06
-0.008448949468065618
0.0005914859791749632
-0.0006947446555480817
0.008654893784293606
-2.185507849279643e-05
8.886278338131765e-05
-0.0001044941950605418
1.060800278776635e-06
-0.008775931471025025
8.844915576287639e-05
-0.0001039765799579908
-0.008767793431917935
-3.207812679854305e-06
0.0005946334983001567
-0.0006979693747287467
7.222610976146157e-06
0.008662101329884337
-0.008390594772446398
0.0005069066097422284
0.008468377873386274
-1.986233797211537e-05
4.883461950862224e-05
-2.166992855283525e-06
-0.00810875773414871
-5.620993941805011e-05
7.601580520294768e-05
9.655848962519652e-07
-0.008568941236893611
-0.008019471176522774
0.0003321365142051259
0.008063732335949774
4.912223503866477e-06
-0.0003813057332417306
-0.0080127611535125
0.0003296674313777012
-0.0003786338678092724
0.008056722161740665
-1.479463529141481e-05
-0.008560610146187317
7.562510104162339e-05
-2.913857301257418e-06
-0.008397928679149354
6.572254740104113e-06
0.008476063025159184
0.0005099309875834894
-0.008295486475379369
0.0006318231870529539
-2.511639126264884e-05
-0.0007994777163444241
-2.138322387827895e-05
0.000701150204568416
3.216568257760026e-05
0.007902728815647929
-0.007815183762572859
0.0008019396527589514
1.173215713700449e-05
-0.0009174121028951392
0.007986604214847313
-0.007882860834998999
0.0004163492626155041
-0.007964917421342333
6.220857905309242e-06
-0.0004771198485225377
-2.351129601878337e-05
3.53891961680633e-05
-0.0009148796379646983
0.007983620113547819
-0.007880096092093732
0.0004133273563695071
-0.0004738820526499765
-0.007958542523006719
-1.873577728130457e-05
8.311579418063993e-06
-0.008302514102634714
0.0006353733841055973
0.0005482474828445115
0.0001789020458693649
-0.007578547752642219
-0.0006227650028511774
-0.0001680333215551619
0.000635983837592335
-8.74286150367877e-05
-0.0007212604068826077
9.885984068746711e-05
-0.007649888001893893
0.0001584933659251669
0.0004845213043049701
-0.007541944413712205
-0.0001492564380997383
-0.0003694185790569195
-7.725833619771905e-05
0.0003306303941175188
8.316891924245745e-05
-0.007439373360496515
-7.889697881887422e-05
8.905497958450492e-05
0.0005625671065336345
-0.007607242746790427
-3.843951654867002e-05
0.0002581398767935771
-0.0002863010106293242
4.303765631422451e-05
-0.007379229739369987
0.0006434985927679734
-0.0007295215336600193
-7.612329806935979e-05
-0.007656777865873264
0.0006680866684436173
-0.0007561807282360476
1.067720817594435e-05
-0.007680002643115629
-6.88027771050161e-05
0.0005693817414164948
-0.007613574615508541
1.946006382105481e-05
-0.000299881373340068
-0.007392169725008663
-1.461978254044147e-05
0.0002703743883170529
0.0002614213460597039
-0.0002899469077687398
-3.377120027669068e-05
-0.007382660548885591
9.69985985699762e-06
0.0005919480376123578
-0.007635133135801484
0.0005055892724905372
0.0088692797876885
-0.008779153318718381
0.0001542641982872126
-0.008551077306788505
0.0004222657989968299
0.0001331087463602515
0.008623099374337837
-0.0001013941836274811
-0.008665375415789638
8.536822300731503e-05
2.720577647799175e-05
0.008192948437758319
-0.001094693910482315
-0.008049085681221143
0.0009268375616985946
0.0003053989563141442
-0.0009915095021270084
0.008329348395007532
0.0008334407959748664
0.0002692506084148725
-0.007912855856219522
-4.503913735403631e-05
1.332544882332982e-05
3.899946278392988e-05
0.007897116065163141
-0.0002218272686888662
-0.007871241477685056
6.551783626271494e-05
0.0001921164047119644
0.008115346156925092
0.0002577597589699154
-0.0003015824944189339
-0.008077289904524687
8.632151367044941e-05
0.0001564989514181084
0.008138463651685485
-0.0001831482947073265
5.242610378921768e-05
-0.0005197541820787374
0.0004500742413483275
0.007871613958093328
0.0001547801987327747
-0.007811261248129061
-0.0005607542223816325
0.007686325975884928
0.0001734692072394382
0.0004917743261279614
-0.00762695021049785
0.0006424434061199262
0.007809662202532948
-0.0007397361934772651
0.0002246829974953153
-0.007726295683480908
-0.00788907435717204
-0.0006039715253016191
0.00796191136431108
0.0001771380092775863
-1.126946108710135e-05
7.835456884694927e-07
-0.1123062615871433
1.022929610883238e-05
0.1123073407464954
-8.225400713412284e-07
2.100286614691721e-05
-0.1122958100783649
1.446221000714382e-06
-2.37663647694605e-05
-9.513035478014163e-07
0.1122980786595367
1.04208320166399e-07
-0.1123084241333601
3.846940581215054e-06
3.899495947172691e-06
0.4491605565663583
-0.4491512438593794
-2.048332616403498e-05
-1.518204826871788e-05
-1.533987462182945e-05
0.4491579433771697
6.402610164790635e-06
-0.449148465962999
5.76518999485048e-05
-2.367314340080695e-05
-1.844590282507053e-05
-1.310117510318343e-05
-1.441220726919323e-05
1.286306751741423e-06
2.073309840544743e-05
-8.232768261805246e-06
-4.561275045868174e-06
-4.439432288311229e-06
-8.093169839698544e-06
2.476483221120429e-06
2.041541531323853e-05
-8.779440265123395e-06
-4.122733901358588e-06
-7.665901097166083e-06
-4.569700908500784e-06
0.02843958332797207
-1.967145737501707e-05
0.0001532259288170549
-0.0001749695230865119
2.420139342933145e-05
-0.02842236966975885
-0.000289576041560968
6.88245797147651e-05
-0.02849291263573724
0.000251870813107934
0.0285237957921985
-6.200250772847415e-05
0.0002940926143022741
-0.02840446096422071
5.885743234623798e-05
-0.0003357209444577092
-5.005090273335812e-05
0.02843728276476318
6.40091392850793e-05
-0.02836751718651106
-0.0002782607640262556
-5.754160557242602e-05
0.0002452626041972219
0.02839404781262138
0.02857839735355442
-3.18142845542428e-05
-0.0002673881936832306
0.0002310739421000107
3.909493543704058e-05
-0.0285493637528484
5.016833967627801e-05
-0.0002200153799868496
-0.02841860432512927
0.0001929671440260218
0.02844060223503324
-4.511801361785089e-05
-0.02837707764576185
5.048601392733555e-05
-4.290822796513284e-05
0.0002585618090407418
0.0284050306650269
4.393272350612116e-05
-0.1129549911211065
0.1130036331918842
0.000262806871832224
-3.007195520789357e-05
-8.438165324999719e-05
-7.847331458357698e-05
-7.772100154940925e-05
-8.473374152667516e-05
-0.00010554443394678
2.145311196554206e-05
-0.02827241784234967
9.385133538482583e-05
0.02828188015829952
-1.922232935036459e-05
0.1129397059520915
-5.921789261686244e-05
0.0003420349790517609
7.579060319422404e-05
-0.1128785240243543
-0.0001087007962503536
-0.0001074613722029487
-0.0001010032859751608
-0.0001026241629328035
0.000111678357861078
-0.02824032251341903
1.894902527184258e-05
-0.0001271230736018265
-1.649045620483925e-05
0.02825330866008985
-9.356342298403862e-05
0.02829770538879563
-9.534737730897747e-06
8.388865691406691e-05
1.180202905602773e-05
-0.02829029791404527
0.1129867482868723
0.0002541317882260592
5.644848708136967e-05
-8.145139945909055e-05
-7.474007203719067e-05
-8.171571353721499e-05
-7.57827017494779e-05
0.0003536709497700862
-4.052485237056437e-05
-0.1128914046297403
-0.0001120578593835995
-0.0001056377468459987
-0.0001065765175385213
-0.0001470757001843918
1.715628256320765e-05
-0.1126367695028403
0.1126551281101396
0.0001232314573118503
-1.167064699418922e-05
-2.136429597775106e-05
0.0001433465797102927
-0.0001720336180434014
0.1127111776523986
2.763846796874973e-05
0.1126305571100605
-2.336867534413003e-05
0.000164028895681672
3.031402848959143e-05
-0.1126066014274496
0.1126964270533329
0.0001999439234736505
-0.0002398239385232821
-1.977593425570065e-05
-0.1126657976672956
-0.0001769050144484895
0.1127194505268552
-1.455845549080166e-05
0.1126484688056646
0.0001203431902636048
2.22479761489084e-05
0.000167927702031873
-1.589296121841792e-05
-0.1126122289957916
5.613752370285966e-05
6.446208780909367e-06
-0.1124479786490085
0.1124546927202861
-4.359099040763301e-06
-6.49387047355953e-05
-5.407041914688763e-06
-5.521661921632735e-05
0.1124278208462517
4.802639221239547e-05
7.078463672829568e-06
0.1124243249770238
-7.709928969064144e-05
-5.019363772637398e-06
6.705436830507649e-05
-0.1124166906698072
0.1124455754976061
-8.849360181644026e-06
-8.753160070895662e-05
1.157233484312651e-05
-0.1124366083117749
0.112429932546803
-3.653254472365288e-06
4.877616622607362e-05
0.1124521758802555
-6.379937453407838e-05
8.428581161128369e-06
-5.983309648646048e-06
-8.908513360601645e-05
-0.1124388588558798
3.289502149964667e-05
3.2931686639676e-06
-0.1123697610312977
0.1123731386174676
-3.734562627322191e-05
-2.220150069025453e-06
-2.813898088817636e-06
-3.247029430940786e-05
0.1123575291061876
2.873934293035063e-05
3.698919895596791e-06
0.1123685179767886
-4.536223171294435e-06
-5.07197093481377e-05
5.95808379692125e-06
-0.1123639507531937
0.112355749042667
-4.531237584977229e-05
-2.613701848787992e-06
4.009781634373156e-05
-0.1123518005454542
0.1123586275177235
-1.8960894116823e-06
2.909873749591185e-05
0.1123718528824451
-3.683707741330977e-05
4.325045828996094e-06
-5.141646198949808e-05
-3.057742222940156e-06
-0.1123651354263888
2.071335656470819e-05
1.754446273670737e-06
-0.1123224403022753
-2.307765606500212e-05
0.1123242435324094
-1.193376915681799e-06
0.1123217566650343
-2.438083516198658e-06
-3.145096444072541e-05
3.184225136010355e-06
-0.1123193290526441
-1.497558894497087e-06
-2.048570425294827e-05
0.1123145212558043
1.837444239427648e-06
1.858913820921362e-05
0.1123135608479729
-2.858228462560709e-05
-1.43238675504268e-06
-0.1123115798179892
2.593980964276654e-05
0.1123151123895436
-1.037592935842473e-06
1.870184867581518e-05
-2.28074824199724e-05
0.1123235558137878
2.277075310569167e-06
-3.181591468169184e-05
-1.648748032073948e-06
-0.1123199960080434
-0.0003279599761008797
-1.654765940519167e-05
0.007320599503369688
0.0002980347981115022
-0.007296134745187406
-0.0003706985670215531
-0.007198551371568343
0.007222896285101452
6.506881288040734e-06
0.0003398488128907359
-0.007197083793019386
-0.0003652676823549474
3.220226668983117e-05
0.007221057221208583
0.0003349530414056509
-2.586105393035067e-05
0.02900544051421101
0.0005165645967064814
7.54324567855048e-05
-0.02892670064934257
-5.847002587672352e-05
-0.000152585129697078
-0.0001459870185419499
-0.0001506304286007236
-0.0001630643156418487
6.811481026961312e-05
-0.02869265327207043
-0.0002591333622107505
-3.419310093816231e-05
0.0008762883531189571
0.02881402748156605
-0.0002595635914746505
-0.000256194622569783
-0.0002566926956991717
-0.02868913632211547
-0.0002565867800020478
0.0001013127749963152
0.0008662104936584528
0.02880901792707198
-0.0002558550661949338
-0.0002538562395956144
-0.0002529919775779328
0.02902816572414876
0.0005344338551950503
1.988996620239051e-05
-0.02894492274155324
-0.0001623465155135475
-0.000156459075337951
-0.000156336145594997
-0.000162416464021548
-0.0001666224492985583
0.008327849268058123
0.0001891482300172899
-0.008122792815055733
0.008344873643274539
-0.0001452530128964623
0.001363316446914215
-0.008137659551137922
-0.0001496165960703309
0.008532837657872128
0.0001700212870370165
0.001260594010976107
-0.0001303116538994969
0.008551895905312518
0.001272971080726614
-5.247631641063606e-05
0.0003633335796386158
-0.007535453992897024
-0.00040814835351664
5.899384359474551e-05
0.007573751239589899
0.0003457538421640569
7.813326834537423e-05
-0.00751534183089301
-7.185148137650669e-05
-0.0003884859519532029
0.007551792153714023
-0.0005727776646930433
-0.007653605903141649
-9.034918140525564e-05
9.970568898924418e-05
0.007712421846666717
0.0005046052135839862
-4.611430147894624e-05
0.00788212248910437
-0.007838388102783936
5.214084234544405e-05
0.0003470702281657213
0.007845594856982933
7.049036525108729e-05
-6.434921983046228e-05
-0.007803883785471792
0.0003308660166101832
0.0002263960565397412
0.007640533782135752
5.002599359569523e-05
-0.007615107957733602
-0.0002558888428227551
-4.595903171525811e-05
-3.348047269757225e-05
0.0002378908353253984
0.007666984192213538
-0.007640271264796761
-0.0002687912328926858
3.766794284974588e-05
-0.0001249052070967916
0.008359665113739655
-0.008150628852971614
0.008372167515646775
0.001384391243197182
-0.008161639669153165
0.0001119719514075299
0.008582300050477566
-9.44637388382729e-05
0.001292042992021883
0.00856840134235814
0.00128340960461645
0.0003679181492565204
-0.007540852619092702
-0.0004132433666115427
-4.592832997244626e-05
0.007579629849989378
0.0003780327067173924
-2.622777072161423e-05
-0.007552982751633526
3.279566436111029e-05
-0.000424427295324927
0.007592809446601071
-0.007689026488085745
5.340638770138408e-05
-4.435869402774712e-05
0.007751473094277228
0.0005360863533264851
0.007891715634533095
-0.007847469170821601
-4.015342637041438e-05
0.0003511937396679058
0.007912773196522126
-2.266835036049377e-05
2.843443705567379e-05
-0.007867431644356342
0.0003601329547216375
0.0002474673404860244
0.007689753212302314
-1.669628507886345e-05
-0.007661975238429776
-0.0002794350740922093