/*--------------------------------*- C++ -*----------------------------------*\
  =========                 |
  \\      /  F ield         | OpenFOAM: The Open Source CFD Toolbox
   \\    /   O peration     | Website:  https://openfoam.org
    \\  /    A nd           | Version:  7
     \\/     M anipulation  |
\*---------------------------------------------------------------------------*/
FoamFile
{
    version     2.0;
    format      ascii;
    class       volVectorField;
    location    "0";
    object      U;
}
// * * * * * * * * * * * * * * * * * * * * * * * * * * * * * * * * * * * * * //

dimensions      [0 1 -1 0 0 0 0];

internalField   nonuniform List<vector> 
12676
(
(1.000678739600812 -2.903967385082102e-06 0.0001279371631032509)
(1.000509041071333 -2.65541403720871e-06 5.461115092208865e-05)
(1.000421521782183 -1.588290942885477e-06 3.930106466602168e-05)
(1.000357745567418 -1.117650352275797e-06 2.922407016778461e-05)
(1.000310853535779 -8.394797003091081e-07 2.197640056711673e-05)
(1.000276237402101 -6.575780044118844e-07 1.654944272833176e-05)
(1.000250780184496 -5.354078064382816e-07 1.233544174172729e-05)
(1.000232374240451 -4.533848288121804e-07 8.929892720408141e-06)
(1.000219605393636 -3.997287404776639e-07 6.054769325938562e-06)
(1.000211550908174 -3.672961668571103e-07 3.511876050835916e-06)
(1.000207654524607 -3.520073505168022e-07 1.15126809541164e-06)
(1.000909882012195 -1.419979155319239e-05 0.0002453910049592781)
(1.013898731018026 -0.002948391077531083 0.0128533732148725)
(1.00735889522655 -0.0009569242748913868 0.004922982711538636)
(1.004201919572316 -0.0002967487648262862 0.002027150196170397)
(1.001926551935044 -7.645939085922835e-05 0.0006715750778221256)
(1.001339994364498 -4.001899914611225e-05 0.0003992283636217403)
(1.000976954507742 -2.090067679580723e-05 0.0002561792677544714)
(1.041983548359681 -0.003524481424278835 0.04712450424003588)
(1.097660605334427 -0.01088703772782262 0.08386457670792868)
(1.098733392442512 -0.009569756094048773 0.08486542328150999)
(1.105832842232177 -0.01208800495686342 0.09524596053633734)
(1.149822570643129 -0.000903204908347369 0.007681609738340485)
(1.093544532602475 -0.02263807830556726 0.08220738807481923)
(1.157264698820363 -0.01104953122622986 0.0439983373196794)
(1.1070107893376 -0.01060702285553564 0.0963503419104542)
(1.151507823750932 -0.000791004474427499 0.007767261294269249)
(1.157288325479583 -5.177795777970343e-05 0.008048551686667235)
(1.11111572547884 -0.0006915719544100188 0.1000070569546036)
(1.019578561718633 -0.0002325179644086343 0.001031923744328591)
(1.014945157102072 -0.0002185741816367297 0.01460644902207306)
(1.021402916654181 -1.746484770201773e-05 0.001179692943510343)
(1.007939044243974 -0.001067563853380001 0.005494779600527966)
(1.009806793806212 -7.980526097597581e-05 0.0004142420636473962)
(1.008367826551403 -7.762180528202785e-05 0.006010974679900876)
(1.010424852223528 -5.908608085667448e-06 0.0004557613727971179)
(1.008989447506138 -6.957266751441663e-05 0.0003822948011198802)
(1.004784032224617 -0.0003713191591770406 0.002436268713104742)
(1.005387481935729 -5.698117511555929e-05 0.0003739381949899399)
(1.007746994625963 -6.802330657861771e-05 0.005349334865622691)
(1.009527613898635 -5.137388124597307e-06 0.000418759061808463)
(1.00494625717635 -5.619791542276806e-05 0.002582345789446186)
(1.005586320368083 -8.671024763058836e-06 0.0003968400805518226)
(1.004679543626186 -4.531480869451349e-05 0.0003095438143544292)
(1.002932017349854 -0.000159174926514389 0.001218385186958668)
(1.003182425318186 -2.412694482759097e-05 0.0001843724937938925)
(1.004333075381644 -4.468974922947886e-05 0.002138398654114609)
(1.004837095740581 -6.869984141226705e-06 0.0003268715247394068)
(1.00300407979163 -2.372527235737093e-05 0.001271029917013551)
(1.003265314454796 -3.626951416579551e-06 0.0001924079569119527)
(1.0020442490688 -1.161567312712813e-05 0.0001015228022282105)
(1.001961815734329 -1.129857713228119e-05 0.0006934312275579282)
(1.002083339664109 -1.736493491312401e-06 0.0001048069903380209)
(1.002624077444721 -0.0001312536352895643 0.001041311772427881)
(1.002829294764584 -1.988257621524964e-05 0.0001573660165345447)
(1.00268383937792 -1.951390155670242e-05 0.001083088264065465)
(1.00289729553237 -2.983310034986914e-06 0.0001637112692333578)
(1.001400686967325 -6.161427929134707e-06 6.096328050239218e-05)
(1.001750766851414 -6.459109791872261e-05 0.0005859181934740208)
(1.001849754126942 -9.836839540381752e-06 8.870639837028435e-05)
(1.001780655184961 -9.529085607643636e-06 0.0006037842615767979)
(1.00188264345134 -1.469447410634423e-06 9.138488027167751e-05)
(1.001358700772064 -5.880205847344719e-06 0.000409470817741505)
(1.001420802197115 -9.195171228018974e-07 6.249810081749533e-05)
(1.001233194082265 -3.431180649884011e-05 0.0003541714158473712)
(1.001009750476973 -3.343539814648805e-06 3.97368550777567e-05)
(1.001285167484329 -5.30413328782311e-06 5.430917706802738e-05)
(1.00098700964763 -3.334578339547705e-06 0.0002598183365583806)
(1.001020410482746 -5.251737102829482e-07 4.044898103723253e-05)
(1.001249316019386 -5.040165495054629e-06 0.0003628566478712817)
(1.00130232570822 -7.927180393241275e-07 5.561392834596591e-05)
(1.053706412158947 -0.004199880678511166 0.03424217697976888)
(1.015123061961931 -0.003458458001957159 0.01471767260872753)
(1.021916654329169 -0.0002758044773700414 0.001198767354749951)
(1.01631383722037 -0.0002569652754981349 0.01682366869244409)
(1.024083116986787 -2.074397340492509e-05 0.001379142887484554)
(1.039564096028271 -0.008656737539615118 0.04316519179573321)
(1.053205792060845 -0.004734979080410933 0.03381386214792895)
(1.192272425188688 -0.01699253974410639 0.112220373284429)
(1.156089862587498 -0.02287901703930078 0.1881794009326492)
(1.153742649101924 -0.02577770980015901 0.1858536003282626)
(1.200886667073661 -0.0118767699960446 0.1165620611674584)
(1.057168080142571 -0.005245636557291614 0.03751951474049197)
(1.069943710720112 -0.0003806219534199579 0.002796350304355544)
(1.134736748537675 -0.0008101377087079108 0.006670988366822988)
(1.086531434625874 -0.02004383282675463 0.07227789817843386)
(1.06763562453534 -0.01037060782435695 0.04851028645736839)
(1.062642852124211 -0.0006548433672136383 0.002418263521626137)
(1.118490432410637 -0.001517841009150044 0.005758263572052511)
(1.175951935973716 -0.01365346950700332 0.2256263595746487)
(1.207994509614695 -0.005968978457214493 0.1198269061927147)
(1.160031149275633 -0.01746176299109745 0.1918737860018159)
(1.203112719040931 -0.0103161391115464 0.1176146201555854)
(1.162993139719029 -0.01246793074036485 0.1944864851508226)
(1.059251017035208 -0.002193141728655238 0.03929805398628419)
(1.057719634052139 -0.004648811705760015 0.03799691238798557)
(1.073180526636538 -2.323092774683737e-05 0.002954853213348055)
(1.070658712681624 -0.0003372230448775013 0.002831918675720106)
(1.13625019160289 -0.0007109052154065141 0.006748236875944128)
(1.141467450888857 -4.691964835106481e-05 0.007004038148005891)
(1.102483185217343 -0.0006277903009719742 0.08820454517714156)
(1.17247428377893 -0.01517808259894173 0.09576780224696649)
(1.124443037714123 -0.01487347204347713 0.1241634478409958)
(1.132481388648078 -0.007794905878358639 0.06447296945630403)
(1.111671576564818 -0.01683259348901463 0.1055356474420821)
(1.121063600818924 -0.01875452242193935 0.1208402258030417)
(1.126834956393639 -0.01077272597824768 0.06157183495427017)
(1.180236359575544 -0.01070985689710007 0.09972155902130014)
(1.183774561990764 -0.01204043236833728 0.07720825757645478)
(1.139179395015066 -0.006162255957148453 0.05155235596119342)
(1.211008603377588 -0.00124630735418014 0.01211759799391728)
(1.143396041780029 -0.001251590353104947 0.007339920085970031)
(1.133229872100286 -0.008526005619626272 0.0492434318242742)
(1.192009202306285 -0.00848214389850417 0.08036195945767456)
(1.202027131542633 -0.001773243319238606 0.01164952683297867)
(1.206140294950346 -0.01348999243424472 0.09078248141405286)
(1.238706863321422 -0.001383955441982469 0.01428238172805929)
(1.21529990048252 -0.009411970938934717 0.09424779220738595)
(1.228684660537436 -0.001988669012464679 0.01376776749288354)
(1.158719664654017 -0.03832268686010189 0.1561410480342113)
(1.178453123264414 -0.03366168662551736 0.1408069555204866)
(1.188716943621851 -0.01885766722826605 0.1102980575663488)
(1.145167268969154 -0.03532586831758109 0.1764643159483689)
(1.25637636075972 -0.01886218708317671 0.08799050642710131)
(1.224948787444036 -0.01650846507814009 0.07305724641858406)
(1.238214985229601 -0.003366601582503903 0.01511090023267445)
(1.20234383494462 -0.0149821952936315 0.08924534979678518)
(1.224505943738041 -0.002211181441209366 0.01353891245310913)
(1.109478997282807 -0.02900678967859332 0.1077492800679293)
(1.132303972717029 -0.0227790184641 0.08761358168570808)
(1.12031271529756 -0.02003537529892399 0.07572033791184234)
(1.169290266908535 -0.0167761149415515 0.09403579084615277)
(1.097750367975989 -0.01967370472853888 0.08698394791329413)
(1.114634966239504 -0.02486782453613944 0.1139128693850924)
(1.124555253387373 -0.01178515741840108 0.06033998532296152)
(1.161841051772126 -0.006703434495445957 0.02685122413772661)
(1.131523649806276 -0.001726815994505382 0.006646913556625515)
(1.126841060621922 -0.008502302359066141 0.03252924027680879)
(1.180383940694067 -0.01331725218006952 0.07582419121981918)
(1.140785076585405 -0.001370716923165576 0.007194300518533268)
(1.130821682889122 -0.009331506894948122 0.04826158790319438)
(1.198308992070706 -0.001963279966918416 0.01144356439438568)
(1.186697622810022 -0.005422822213140503 0.1027350036300763)
(1.125859118963518 -0.01300050325737955 0.1254941476041641)
(1.133970452543813 -0.006831103435454312 0.06520247008645826)
(1.108921704476303 -0.007701452283378579 0.09808936789022887)
(1.182253545076447 -0.009324706869480802 0.1006888095705293)
(1.128147761862412 -0.009380300719989201 0.1275702907027205)
(1.137287652805242 -0.004029829224110692 0.06677453296744808)
(1.19883105556444 -0.004289483195532474 0.08276073168175152)
(1.14074477880865 -0.005398717989438187 0.05213218601933301)
(1.213324337585417 -0.001084107311226081 0.01223176168186346)
(1.155248035235815 -0.0004660970334234363 0.007951527306805888)
(1.194142167408612 -0.00738212953942588 0.08113233221025126)
(1.144226553195388 -0.003182773089177691 0.05338069981059763)
(1.21840117431402 -0.000629429816196351 0.01247332582438242)
(1.22281801868963 -0.004723989658105975 0.0968486311063574)
(1.241274676494846 -0.00120090344701074 0.01440683480145787)
(1.217658350318736 -0.008171671108739278 0.09508667833875874)
(1.246877087232059 -0.0006936817835046966 0.01466904455041194)
(1.209048966074973 -0.004604668195366065 0.1202869984161788)
(1.166100257401073 -0.003302069912289967 0.1970777222076424)
(1.165664750663494 -0.005526713455858439 0.1967244932852116)
(1.210599332871411 -0.0006499633753815957 0.1209505656813966)
(1.223929818221173 -0.003643642447042507 0.0972148745849461)
(1.249846682197673 -7.567365688303883e-05 0.01480201496231525)
(1.248082091919952 -0.0005350464145374871 0.01472397478162446)
(1.225561918233803 -0.0005142315245812163 0.09774269246060294)
(1.199847897092697 -0.00331204051373324 0.08310203901769578)
(1.156068116737728 -0.0003610634212475504 0.0079908572669363)
(1.221118070258793 -6.901501512240507e-05 0.01259709561981075)
(1.146130250928026 -0.0003504001143246206 0.05403938473070517)
(1.144991325481217 -0.002465225598664091 0.05364735443564561)
(1.219499886027361 -0.0004860054354122089 0.01252410497282717)
(1.201348339063931 -0.0004683354652685092 0.08359742756340326)
(1.187663334354277 -0.004187815729240566 0.1031641449229604)
(1.120052332069491 -0.003816029005698326 0.113347724417313)
(1.130758069484001 -0.000836224262095473 0.1298283708804235)
(1.139104520954869 -0.0004436541469573505 0.06760461384102655)
(1.130240032310835 -0.004196703034446742 0.1293895184533383)
(1.138017255951489 -0.003121724719110738 0.06711050850515361)
(1.189090061697643 -0.0005922108936907337 0.1037873875217896)
(1.084728107256207 -0.02472827247931857 0.08843151485717771)
(1.095597273855612 -0.01327568660654494 0.1025129381390077)
(1.078993117115058 -0.0219374392018897 0.07804683910077821)
(1.063104339485777 -0.01143758890996524 0.05298824727473821)
(1.088903824039788 -0.01197053940441589 0.09058600827450555)
(1.053930271344771 -0.005809173648255728 0.0412282141316313)
(1.096652401173777 -0.01165548393649258 0.1037130338696103)
(1.100348242384509 -0.0007612798529659016 0.1076962692000792)
(1.089869336329626 -0.01052715677721346 0.09167504884960738)
(1.055859829866462 -0.002429843119998177 0.04318517601289946)
(1.054441075642322 -0.005148493502103028 0.04175307027792444)
(1.093259111003205 -0.0006916764292962821 0.09531627919864824)
(1.248786028871182 -0.02081864395956668 0.08545400221137084)
(1.218322566589376 -0.01807732190425333 0.0708216741855415)
(1.23118148529797 -0.003690447047786217 0.01465176543067537)
(1.15420215699608 -0.04170931914026613 0.1511823868253127)
(1.173294651525784 -0.03670760126462352 0.1363829086163676)
(1.127968051334727 -0.001840607935698955 0.006424525925214947)
(1.123442009705523 -0.009059201588490282 0.03144172927035426)
(1.152845481698732 -0.01187520304386377 0.04253628448351732)
(1.157269638487561 -0.007207344677861677 0.02595981283686211)
(1.117131864355724 -0.02139043767906402 0.07318576511392327)
(1.091254330374739 -0.02404408383476305 0.07947238238891145)
(1.106660373705026 -0.03102639600764071 0.1041434541795999)
(1.128719087896446 -0.02442241400629623 0.08468893282176941)
(1.000930641698961 -7.157093043288836e-06 0.0001017692648328226)
(1.000842793314787 -1.068392902256375e-05 0.0002119253534503088)
(1.000945637520366 -4.709383491133197e-07 3.74713292365305e-05)
(1.000771767052558 -4.351076852033953e-06 0.0001548048993888565)
(1.000765761068628 -1.147714739315112e-05 0.000150632341479557)
(1.000785831852584 -1.438465495926435e-06 5.450857258895147e-05)
(1.000780254519094 -4.191967609109293e-06 5.390910234546842e-05)
(1.013560539024531 -0.0007820306611253874 0.006214351412422381)
(1.016319024434565 -0.002331984464014827 0.01025224272358537)
(1.013200306125797 -0.001941283928309549 0.01192546129757652)
(1.011771128477392 -0.002166634087886383 0.009912867240529458)
(1.018298533116575 -0.001263952156379576 0.009438332831553349)
(1.013511580983082 -0.001698473018780734 0.007819786276330497)
(1.012137311970049 -0.001664746212837712 0.010464461242967)
(1.00692437358862 -0.000329782122748724 0.002783983822136439)
(1.008076611522785 -0.0007250370453513611 0.003775541185626241)
(1.006298743654752 -0.0006016293715452498 0.003606270276747315)
(1.006995229391552 -0.0006317064076917097 0.004521683903647889)
(1.008677406300634 -0.0003803264532590811 0.003360039377298061)
(1.006781016228586 -0.0004473221057221686 0.002687913252984783)
(1.00642425692095 -0.0004444769539561928 0.003737852927489363)
(1.003953283792395 -0.0001284595269445098 0.001279560508832519)
(1.004434756754816 -0.000218367754474052 0.001492924012971859)
(1.003709353694813 -0.0002392226590089518 0.001699213383300669)
(1.004266677799744 -0.0002174753200571868 0.002081741358465684)
(1.004505767465603 -0.0001600801657045723 0.001533636518906201)
(1.003895924504864 -0.0001755945746404226 0.001248235597486159)
(1.003762115325302 -0.0001749590170505382 0.001741404144368425)
(1.002218800796856 -4.815097384741219e-05 0.0005731419097692039)
(1.001984632495535 -5.563832728672485e-05 0.0004887243144568621)
(1.001944048505769 -5.547717199161829e-05 0.0006823841798600174)
(1.002127503447643 -9.10038398980096e-05 0.0007733635068409333)
(1.002003057400605 -4.037479557104238e-05 0.0004966328517373337)
(1.002196876166598 -6.628553608157059e-05 0.0005633893195271788)
(1.002148241401096 -6.609783903127381e-05 0.0007866718262549993)
(1.001506820715994 -2.456863520289901e-05 0.0003325001078005613)
(1.001370070650607 -2.90226371718406e-05 0.000289749762081697)
(1.001460338107094 -4.676508144995966e-05 0.000451835902422544)
(1.00134929259427 -2.893639969574891e-05 0.0004043086020994262)
(1.001379715176266 -2.098880371575554e-05 0.0002934615810440641)
(1.001495551839567 -3.394854203752493e-05 0.0003280822330069473)
(1.001471156628428 -3.384048239366319e-05 0.0004578879897716936)
(1.001078060589574 -1.313618821823182e-05 0.0002072947343486635)
(1.001053114073466 -2.505431972362789e-05 0.0002827369219404612)
(1.000992509804138 -1.486155242729522e-05 0.0001849696684599382)
(1.00098205920111 -1.571365219292745e-05 0.0002580927539262909)
(1.000997801164535 -1.129722831608443e-05 0.0001865808532164171)
(1.001071949507741 -1.796540122436982e-05 0.0002049381617653053)
(1.001059132629535 -1.821187533481927e-05 0.0002859086357673569)
(1.042162789274439 -0.002748996599802324 0.04740964384145533)
(1.02824367622391 -0.0004640835911919451 0.0538155134255026)
(1.02800716852168 -0.004139888430945084 0.05303289861364321)
(1.032636146606992 -0.002386801817606733 0.0213742039338382)
(1.025052532405645 -0.001823631353913323 0.03612521282078195)
(1.02490049062118 -0.003020034653820956 0.03570156333561531)
(1.033366241074226 -0.0003546906469587563 0.02219146724538255)
(1.168445945383158 -0.02527016289811426 0.2188719359036347)
(1.170730244573942 -0.02215277376912953 0.2210182683473535)
(1.196497163754673 -0.02268355809432317 0.2047989412463843)
(1.199077093784311 -0.01986596738700201 0.2067449528595271)
(1.077125436816488 -0.007946663072809921 0.05838149393503725)
(1.074123042458431 -0.0106924132752255 0.05556019805037266)
(1.095116201449728 -0.01354512530250887 0.08140887727507137)
(1.120221264250354 -0.007001769413404252 0.05628020727784991)
(1.11514767422806 -0.009608653147494855 0.05368127398994435)
(1.087515345115708 -0.006842450895256013 0.03651550714907427)
(1.091198638397515 -0.005071960327593365 0.03836325564268337)
(1.172739188981256 -0.01919033293418999 0.2228390852363734)
(1.174478114135023 -0.01636361771891141 0.2243665308278006)
(1.203286522506703 -0.01465219207261176 0.2097755565904031)
(1.201337108460486 -0.01719513613288901 0.2083939191730446)
(1.077933064519577 -0.007015244968662624 0.05911569494462149)
(1.079758423336714 -0.004207853108857866 0.0607353769816209)
(1.10047649947409 -0.00696795256990154 0.08644826238607035)
(1.121564730179859 -0.006147616137619189 0.05693929736633786)
(1.124566591456708 -0.00364198685810356 0.05836776983593539)
(1.094400590749032 -0.002679221395608748 0.03989629731642919)
(1.092183639691882 -0.004474206343000461 0.03884229687218504)
(1.114748564765297 -0.01341413917040179 0.1085504246862931)
(1.113292034283569 -0.01510937760857014 0.1071451054806567)
(1.104506908259152 -0.01358684120349312 0.09397289857349031)
(1.124628396677441 -0.01348653108703201 0.0976133582880124)
(1.115561088327397 -0.01077169142739963 0.08644594620672354)
(1.114102830980448 -0.01211398228934246 0.08529976587376227)
(1.126237089750932 -0.01196590455619184 0.09888019919390703)
(1.16292444359346 -0.003392184539110979 0.02614081719723522)
(1.147997218541342 -0.002696121574285935 0.02288142429377339)
(1.167232210242983 -0.001006468158856945 0.00889109716459922)
(1.14791146686568 -0.001017467033755264 0.007582493994135082)
(1.146109753260494 -0.003037116603079163 0.02258589126974251)
(1.165028825276691 -0.003004076897840362 0.02646864014399095)
(1.165100441656027 -0.001136546554776995 0.008781135977810522)
(1.300682746871988 -0.00579522046083765 0.05963444460306912)
(1.310596079524526 -0.00169597751958132 0.0202835324415164)
(1.304245291000707 -0.005061222440898615 0.06014615507797455)
(1.306978676767867 -0.001942097352704136 0.02011192082056765)
(1.173744791896338 -0.04356199275935861 0.1841645335657155)
(1.148757041520152 -0.04804991485232811 0.1962857799690204)
(1.152749274837029 -0.04373938724420025 0.2015530394791909)
(1.178442529504607 -0.03956500478517438 0.1890047722575758)
(1.273198287733809 -0.0038485967157833 0.01825618798576313)
(1.267490789881174 -0.01146730073696535 0.05410426634143828)
(1.274641931768563 -0.01034283746646325 0.05542219331759041)
(1.280489549177426 -0.003469971013117942 0.01869899789407097)
(1.101184734059868 -0.02560792878567649 0.09390310333247741)
(1.111104258402333 -0.0229756595854114 0.08560752563615524)
(1.101930454751574 -0.02027303525417009 0.07465273053656551)
(1.095712340206237 -0.0211744058319172 0.08470981534986796)
(1.103586805153986 -0.02387509557911306 0.09675694919659154)
(1.113809092635886 -0.02139963562115679 0.08820518715695218)
(1.104353705428817 -0.01894660634872406 0.0769251310839049)
(1.168146329368021 -0.0173704623320085 0.07039596906869419)
(1.176279709744444 -0.01262432445786282 0.0516958176138658)
(1.150632654878867 -0.01521747033299491 0.06005909046537953)
(1.161367996838475 -0.01021708488466864 0.04530380711831741)
(1.172576628690496 -0.01599144356647971 0.07244051364405876)
(1.180947271555102 -0.01161395187576567 0.05319101643147108)
(1.154538115816452 -0.01407931690971895 0.06184571647433847)
(1.116040824002636 -0.01174859220835521 0.1097650485933332)
(1.108040410859565 -0.009144935550507794 0.09729537226835107)
(1.117168964065637 -0.01011257060887704 0.1108010483770298)
(1.128901799766393 -0.009011516701663681 0.1009060027884152)
(1.11685403583327 -0.009447360206942481 0.08743928228142529)
(1.117982203773181 -0.00814165058076575 0.08828855371089536)
(1.127661114927 -0.01047440900909487 0.09997396631533711)
(1.168485756185174 -0.002255506056388908 0.02699071127854568)
(1.149662023166462 -0.002361206108510256 0.02313683261935469)
(1.169107656268607 -0.0008795603363705589 0.008985749684568129)
(1.152971277742225 -0.0006808450278081987 0.007840313533781031)
(1.151108014134582 -0.002032318374060949 0.02335467918505248)
(1.166880664524558 -0.002625332027920964 0.02675083795083682)
(1.170732850662949 -0.0007556689942371925 0.009066207997260009)
(1.309983933014332 -0.003717213233798703 0.06094152115395073)
(1.313735268025486 -0.001464511566554217 0.02042887124985476)
(1.307337692760818 -0.004370591841259585 0.06057903694234073)
(1.316421318112449 -0.001245624745325642 0.02055086876539053)
(1.179294554732566 -0.00360323363103264 0.2283568268467099)
(1.179527162823226 -0.00119773013406598 0.2285398819761327)
(1.208640189889745 -0.003220749985811165 0.2133631914694407)
(1.208896821149159 -0.001070372402770647 0.2135267324734708)
(1.317110729190964 -0.0008139978058983692 0.06188514201302501)
(1.323998138911866 -9.034847346701533e-05 0.02088474892568945)
(1.323662598658119 -0.0002728036271662886 0.02087281499382725)
(1.317443761259016 -0.0002700880781534459 0.06192617092414855)
(1.172980251633748 -0.0005072795971345559 0.0276393165003888)
(1.157085950368977 -0.0001542316560124997 0.00803908725411097)
(1.175504561414447 -5.707161092903205e-05 0.009293929839472295)
(1.155375099142649 -0.0001533977764634083 0.02397598986179366)
(1.155174974930983 -0.0004594773794273539 0.0239476059511659)
(1.175281986116106 -0.0001702402130338597 0.00928370500030817)
(1.173200316112182 -0.0001692527241566349 0.02767011514372671)
(1.120528748947781 -0.0007609791245550021 0.1137546554576966)
(1.120370130677825 -0.002284651778684055 0.1136195999619762)
(1.110970121836592 -0.002075672225652048 0.09988237615587363)
(1.132409077947424 -0.002033242938418414 0.1034368902545918)
(1.121340456318147 -0.0006150017095831074 0.09072120735006284)
(1.121181874770248 -0.001845785230271153 0.09060952674834306)
(1.132582296339637 -0.0006772569932874157 0.103557926977662)
(1.014114984803379 -0.0006206797670937289 0.004941435334744847)
(1.016979559789041 -0.0009659409036254841 0.00437620548097414)
(1.020728743265267 -0.0001496746929439215 0.001124833719103669)
(1.015807401132843 -0.0001676232913796121 0.0007767151146275919)
(1.019237385372443 -0.001007277840441605 0.007545059100825975)
(1.015321237755827 -0.0008226444792454535 0.003810317577891389)
(1.014985936394203 -9.174245661071997e-05 0.0007311790297655388)
(1.013700194554146 -0.0006168977243567104 0.006316819445710022)
(1.01482805314085 -0.001080101782121861 0.01440847843341782)
(1.018856311263779 -0.0001459952451000729 0.009890662649828161)
(1.012549599086305 -0.0004773235592621888 0.01109354035217969)
(1.01851918250931 -0.0009980645317895095 0.009617009825977085)
(1.012489523840371 -0.0007898202710473802 0.01100141659009777)
(1.013913317428815 -9.013129486912893e-05 0.006473758120866095)
(1.014263740288882 -0.0004896494147205618 0.005023401221180157)
(1.020995344976563 -0.0001182491278735178 0.001146486452075054)
(1.019839657676672 -0.0001164040345396272 0.007909058423653368)
(1.015398371793262 -1.07034755947973e-05 0.0007621633236455164)
(1.019475610242808 -0.0007954389578167387 0.007688823975199055)
(1.015149160153821 -7.240931401066382e-05 0.0007434096840044152)
(1.014490793101309 -7.157404037276044e-05 0.005148949907567728)
(1.012340296363186 -0.0006717137914423343 0.005452035747139564)
(1.009390191535017 -0.001241953490072873 0.007063911653865056)
(1.008757536486661 -0.0008250685140259369 0.004240488569360372)
(1.008131250701732 -0.0008154175069798112 0.005723480168729794)
(1.009442190180104 -0.0004359710151151612 0.003764568960310996)
(1.010352418627429 -0.001087130700591367 0.005363095003193696)
(1.009506682466493 -0.001071881641478535 0.007218775421074809)
(1.012810603602194 -0.0005325169712052149 0.004328999646316504)
(1.011665549639108 -0.0003157016765310666 0.001563467999822518)
(1.009587908142132 -0.0003925665631255367 0.00202898681069878)
(1.01019794429447 -5.067674512527568e-05 0.0004403758789416982)
(1.00973817514828 -0.0003445363756612198 0.002974118921729869)
(1.011468808081464 -0.0005212074943015191 0.002580218931193094)
(1.01354716471168 -7.860640405271323e-05 0.0006393449157442585)
(1.012460993777387 -0.0005296587226387583 0.005537755306209384)
(1.009808257006205 -0.000102476463254001 0.007622277953103538)
(1.008998512040953 -0.0004404127262175532 0.006690134815049463)
(1.009643081731183 -5.003682285774304e-05 0.00389446606318381)
(1.009521836653926 -0.0003432166571187835 0.003816083015583296)
(1.009746726303238 -0.0005068844220786989 0.007539612906667889)
(1.01264509874541 -7.734715768375432e-05 0.005669025378208604)
(1.012938687771449 -0.0004199262637862318 0.004397463864802642)
(1.013900235639213 -9.169669721072909e-06 0.0006651655139884013)
(1.010287849818642 -3.992851087593998e-05 0.0004464563276774985)
(1.009949207749143 -3.957584121314294e-05 0.003077425076112232)
(1.009821822981547 -0.0002712703839343551 0.003015128603910574)
(1.013686937428167 -6.201754965187889e-05 0.0006495379938664566)
(1.01313409132913 -6.135350568986046e-05 0.004502317353161677)
(1.007277281074821 -0.0002030808647373948 0.001718641373133451)
(1.008799823273179 -0.0003426511522943376 0.001819948247924399)
(1.007298850152775 -9.322436148692058e-05 0.0005620846883238151)
(1.009330360698032 -4.406040490351355e-05 0.0004053334070998353)
(1.008933845328525 -0.0003003569100984626 0.002628225946634148)
(1.007122327495192 -0.0002753271574594195 0.00165919340687732)
(1.007459811263295 -6.879250265887302e-05 0.0005822539921744393)
(1.005960524686236 -0.0002562237071995515 0.002259924026628684)
(1.00547545506931 -0.0004692664378173012 0.002950964247026174)
(1.005077314135829 -0.0002741144179114992 0.00179967881247433)
(1.004863969264029 -0.0002728240871488397 0.002507840001607631)
(1.005165959358706 -0.000201427301429325 0.001853288015671108)
(1.005848721942533 -0.0003478356242750059 0.002188309203551072)
(1.005574698037141 -0.0003459261582694273 0.003046760764422908)
(1.006231592450477 -0.0001575800441419069 0.001391425989379223)
(1.00624650534222 -7.245273846818705e-05 0.0004560308910389912)
(1.005282178372006 -0.0001682597844202228 0.001105191139840745)
(1.005485480138177 -4.188639988464003e-05 0.0003851693835119618)
(1.005376991643046 -0.0001236568977997199 0.001138361652525161)
(1.006111132542683 -0.0002139404286415552 0.001347134345930756)
(1.006371391928471 -5.337667552065341e-05 0.0004710308719048989)
(1.007022412317802 -0.0002020984244479564 0.002849935448568379)
(1.007704081813761 -0.0003364991525304139 0.005298031684606311)
(1.008853440390616 -4.364423955416454e-05 0.003471498104005754)
(1.006555185468674 -9.174739289118736e-05 0.003870430599855998)
(1.008747168246839 -0.0002991280022184123 0.003405264901969989)
(1.006511164424023 -0.0002722924772719559 0.00382581132363431)
(1.00707215127293 -6.813422031550894e-05 0.002883553549708456)
(1.00738331711529 -0.0001245147929639295 0.001759633348321767)
(1.009408451466444 -3.469780070874221e-05 0.0004105738445177222)
(1.009118150690155 -3.451197059604768e-05 0.002716252622792421)
(1.007626052524476 -1.427878982412159e-05 0.0006032839334955646)
(1.009006850479988 -0.0002362610224965635 0.002664324942307122)
(1.007570041109347 -4.220715168382176e-05 0.0005961735862333457)
(1.007437172347593 -4.200882966012412e-05 0.001780553564075099)
(1.00603706805667 -0.0001569262021779037 0.002309139776736255)
(1.00491856127779 -0.0001668606443055483 0.00255718967460071)
(1.00567766767286 -7.141956753768462e-05 0.003146012110636989)
(1.00525717981737 -4.150209940616883e-05 0.001908987501434343)
(1.005226481325174 -0.0001231951270500352 0.001890186353272361)
(1.005642963239291 -0.000211930078569932 0.003112554704398)
(1.006075935476962 -5.289264888505731e-05 0.002334201958330587)
(1.006313979574367 -9.651928786252794e-05 0.00142190242514664)
(1.005552385235614 -2.563762751121385e-05 0.0003928986160828932)
(1.006500166697222 -1.106532936218829e-05 0.0004866290791367036)
(1.005474549142588 -2.549860761322164e-05 0.001172814746071651)
(1.005441719273539 -7.564018564124218e-05 0.001161184643478368)
(1.006456802807113 -3.271253596535412e-05 0.0004813597395273944)
(1.006355806116695 -3.255184875254702e-05 0.001437435533511369)
(1.004085707703855 -7.860396244658064e-05 0.0007831204245332361)
(1.004596609542414 -0.0001337910439158301 0.0009150144401075401)
(1.004091127712368 -3.640112325775806e-05 0.0002584467183897294)
(1.004757281201341 -3.323556886153048e-05 0.0003180485347706789)
(1.004672052511543 -9.809976555085492e-05 0.0009401536701635317)