/*--------------------------------*- C++ -*----------------------------------*\
  =========                 |
  \\      /  F ield         | OpenFOAM: The Open Source CFD Toolbox
   \\    /   O peration     | Website:  https://openfoam.org
    \\  /    A nd           | Version:  7
     \\/     M anipulation  |
\*---------------------------------------------------------------------------*/
FoamFile
{
    version     2.0;
    format      ascii;
    class       volVectorField;
    location    "0";
    object      grad(Phi);
}
// * * * * * * * * * * * * * * * * * * * * * * * * * * * * * * * * * * * * * //

dimensions      [0 1 -1 0 0 0 0];

internalField   nonuniform List<vector> 
12683
(
(-0.3333358695477236 2.226654395087743e-06 -2.968620973128486e-05)
(-1.000011448101659 2.246411619388771e-06 -2.980212861154312e-05)
(-1.000019195875355 2.285094474530074e-06 -3.002512348486856e-05)
(-1.000027112197486 2.341013482620726e-06 -3.033753749383013e-05)
(-1.000035254291136 2.411573307270446e-06 -3.071298784417984e-05)
(-1.000043668803696 2.493212670984207e-06 -3.111657178065688e-05)
(-1.00005238832316 2.581346620900178e-06 -3.150527540112019e-05)
(-1.000061427690293 2.670330821352764e-06 -3.182869018333971e-05)
(-1.000070780222242 2.753472205796464e-06 -3.203015334250617e-05)
(-1.000080414058457 2.823113696592807e-06 -3.204842521884005e-05)
(-1.000090268943903 2.870821154576796e-06 -3.181999531332018e-05)
(-0.3333358497905002 9.977890914836189e-06 -3.016680531582439e-05)
(-1.00001136044154 1.006752781407273e-05 -3.029315967691462e-05)
(-1.00001905397256 1.024309605401893e-05 -3.053681475574044e-05)
(-1.000026922479237 1.049706128153355e-05 -3.087966572064621e-05)
(-1.000035025992353 1.081783464806923e-05 -3.129459338069303e-05)
(-1.000043414143726 1.118948687173221e-05 -3.174559852932262e-05)
(-1.000052122645934 1.159146745788324e-05 -3.218812554187384e-05)
(-1.000061169501916 1.199841759014224e-05 -3.256969068475796e-05)
(-1.000070551047929 1.23801876430462e-05 -3.283094625421179e-05)
(-1.000080238035034 1.270218648397044e-05 -3.290731306979584e-05)
(-1.000090172068475 1.292619408443923e-05 -3.273129601994093e-05)
(-0.3333358097897937 1.64887647717826e-05 -3.112626609638258e-05)
(-1.000011182896522 1.664052569072539e-05 -3.127382503365091e-05)
(-1.000018766341887 1.693799633484258e-05 -3.155948659261003e-05)
(-1.000026537458891 1.736885299585829e-05 -3.196428561964411e-05)
(-1.000034561865546 1.791409068685469e-05 -3.245967842559354e-05)
(-1.000042895170886 1.854749601903898e-05 -3.30075268228618e-05)
(-1.000051579392441 1.923510949719538e-05 -3.356024105696708e-05)
(-1.000060638970108 1.993482592066451e-05 -3.406121808657462e-05)
(-1.000070076453348 2.059632126716354e-05 -3.444573605695853e-05)
(-1.000079868052016 2.116152642583908e-05 -3.46424773759189e-05)
(-1.000089959375621 2.156588241919459e-05 -3.457584335182735e-05)
(-0.3333357486165563 2.278508274056184e-05 -3.256071478758309e-05)
(-1.000010911209978 2.300228657814425e-05 -3.274089466999946e-05)
(-1.000018325645255 2.342849335201795e-05 -3.309124277657136e-05)
(-1.000025946384884 2.404695941704567e-05 -3.359159583450005e-05)
(-1.00003384734933 2.483175973910788e-05 -3.421139941399459e-05)
(-1.000042093124915 2.574694641888087e-05 -3.490944947680505e-05)
(-1.000050735316032 2.674565204241464e-05 -3.563373937787172e-05)
(-1.000059808290146 2.77693464729722e-05 -3.632157858691036e-05)
(-1.000069324347424 2.874751726533737e-05 -3.690018919700172e-05)
(-1.000079268473882 2.959809905433992e-05 -3.728801417869393e-05)
(-1.00008959300195 3.022901038085561e-05 -3.739697830680514e-05)
(-0.3333356649872359 2.877537319312391e-05 -3.446330745125917e-05)
(-1.000010539485911 2.906219916054552e-05 -3.468844379298254e-05)
(-1.000017721669048 2.962579056209332e-05 -3.512805894112906e-05)
(-1.000025134192505 3.044553508635412e-05 -3.576057324229427e-05)
(-1.000032861878543 3.148933983698757e-05 -3.655300068604947e-05)
(-1.000040981278583 3.271237876578692e-05 -3.746033711695757e-05)
(-1.000049556992387 3.405569999870302e-05 -3.84249669225081e-05)
(-1.000058637104885 3.544495817386911e-05 -3.937629198812811e-05)
(-1.000068247700767 3.678962746445057e-05 -4.023084799532673e-05)
(-1.000078386558901 3.798313885949872e-05 -4.089322756996441e-05)
(-1.000089016329757 3.890445121124127e-05 -4.125816428437537e-05)
(-0.3333355573992447 3.436323030703287e-05 -3.682304004697536e-05)
(-1.000010060792611 3.472423782513453e-05 -3.710659157283623e-05)
(-1.000016942309329 3.543472802913782e-05 -3.76623894024812e-05)
(-1.00002408283561 3.647097822412348e-05 -3.846739090076957e-05)
(-1.000031580505651 3.779578041740451e-05 -3.948599967841673e-05)
(-1.000039526764753 3.935666541066133e-05 -4.06689669620874e-05)
(-1.000048002736624 4.108384911338811e-05 -4.19521776563879e-05)
(-1.00005707436268 4.288821596931668e-05 -4.325556594416967e-05)
(-1.000066786166738 4.465977961709545e-05 -4.44824961861716e-05)
(-1.000077153650135 4.62671941079408e-05 -4.552003807159003e-05)
(-1.000088154561543 4.755900742825513e-05 -4.624064480835433e-05)
(-0.3333354243155544 3.944694477997501e-05 -3.962323144321969e-05)
(-1.000009467988189 3.988644574626226e-05 -3.997988600464352e-05)
(-1.000015974928649 4.075296645611473e-05 -4.06813584764767e-05)
(-1.000022773140116 4.202065818503793e-05 -4.17033276351548e-05)
(-1.000029976191357 4.364858970129512e-05 -4.300773981507989e-05)
(-1.000037693209887 4.557833104001929e-05 -4.454106658803342e-05)
(-1.000046025441828 4.773105878808076e-05 -4.623225005201605e-05)
(-1.000055061174381 5.000453387093973e-05 -4.799061876223865e-05)
(-1.000064868722628 5.227046769018535e-05 -4.970418623516628e-05)
(-1.000075487331089 5.437298509436415e-05 -5.123889264824613e-05)
(-1.000086916111657 5.612908714747183e-05 -5.243949889209408e-05)
(-0.3333352643985989 4.391993773289471e-05 -4.283976171505261e-05)
(-1.000008754770935 4.444122652147448e-05 -4.328540871463136e-05)
(-1.00001480809689 4.547098584595238e-05 -4.416459955154625e-05)
(-1.000021187212364 4.698245428036423e-05 -4.545221310001989e-05)
(-1.000028022832796 4.893272582195957e-05 -4.710832270662064e-05)
(-1.000035444295666 5.125958610907589e-05 -4.907563384930259e-05)
(-1.000043576533793 5.387760010400192e-05 -5.127632994821881e-05)
(-1.000052534953778 5.667381482243877e-05 -5.36086350597425e-05)
(-1.000062417715515 5.950364836992975e-05 -5.594357701502102e-05)
(-1.000073295030678 6.218780174949124e-05 -5.81226568546258e-05)
(-1.000085195383332 6.451132760654222e-05 -5.99573807507463e-05)
(-0.3333350767896974 4.767218014611885e-05 -4.643917898816417e-05)
(-1.000007916940075 4.827664213324927e-05 -4.699071044462229e-05)
(-1.000013433700891 4.947312673531101e-05 -4.808184547338924e-05)
(-1.00001931140014 5.123537805085118e-05 -4.968749643858693e-05)
(-1.000025699059528 5.352059924979005e-05 -5.176697884701601e-05)
(-1.000032748335604 5.626546224801741e-05 -5.426044213352856e-05)
(-1.000040611213115 5.938102914981853e-05 -5.708432789765016e-05)
(-1.000049435126115 6.274692668117876e-05 -6.012616284010867e-05)
(-1.000059354735701 6.620536495294272e-05 -6.323922127348831e-05)
(-1.000070479651853 6.955593894186769e-05 -6.623790523247094e-05)
(-1.000082877650028 7.255257866822807e-05 -6.889508396165741e-05)
(-0.3333348614239404 5.05927532601368e-05 -5.037682979149995e-05)
(-1.000006953824346 5.127889509415322e-05 -5.105173320885112e-05)
(-1.000011849360972 5.263989696002725e-05 -5.239042672057254e-05)
(-1.00001713973985 5.465156998818454e-05 -5.436909081236373e-05)
(-1.000022992748599 5.727356874363221e-05 -5.694801301844955e-05)
(-1.000029583865767 6.044454429643407e-05 -6.006683016064937e-05)
(-1.00003709506936 6.407580778899926e-05 -6.363829928881224e-05)
(-1.000045710617975 6.804377780023073e-05 -6.754085945422822e-05)
(-1.000055608703254 7.218177076318013e-05 -7.161052246651432e-05)
(-1.000066947816963 7.627212314931249e-05 -7.563305958297083e-05)
(-1.000079846857672 8.004021426977194e-05 -7.933801937949189e-05)
(-0.3333346193618077 5.257364959065933e-05 -5.459521113188999e-05)
(-1.000005869796376 5.333612248525899e-05 -5.541092518506766e-05)
(-1.000010061025996 5.485172963970442e-05 -5.703289677346291e-05)
(-1.000014677728357 5.709994711589074e-05 -5.944022866517746e-05)
(-1.00001990608522 6.004533457915054e-05 -6.259657021486686e-05)
(-1.000025946096559 6.363186945090865e-05 -6.644401650856349e-05)
(-1.000033011979611 6.777534837487674e-05 -7.089491064825173e-05)
(-1.000041329163141 7.235400856053769e-05 -7.582169720803167e-05)
(-1.000051126390352 7.719782605830604e-05 -8.104529973253769e-05)
(-1.000062621208346 8.207745252519746e-05 -8.632303002248586e-05)
(-1.000075997135792 8.669449226372767e-05 -9.13378401852009e-05)
(-0.3333359076003666 2.065174745287881e-06 -2.841437504008177e-05)
(-1.000011614850108 2.081514466567565e-06 -2.851823843024718e-05)
(-1.000019458849215 2.113436101680576e-06 -2.871756607631415e-05)
(-1.000027449075706 2.15940608860871e-06 -2.899561040851594e-05)
(-1.000035634055701 2.21708335690344e-06 -2.932740396059725e-05)
(-1.000044052091795 2.283281631321138e-06 -2.968001882939526e-05)
(-1.000052728044308 2.353938116428374e-06 -3.001303241796217e-05)
(-1.000061670015348 2.424104643239447e-06 -3.027929154489256e-05)
(-1.000070866053597 2.48798070412443e-06 -3.04260741432902e-05)
(-1.000080281076917 2.539009838820033e-06 -3.039674227633202e-05)
(-1.000089854292365 2.5700604671107e-06 -3.013295711452622e-05)
(-0.3333358912606489 9.252206202070544e-06 -2.886494687169583e-05)
(-1.000011542458075 9.326306898760362e-06 -2.897812427753599e-05)
(-1.000019342011782 9.47112614868572e-06 -2.919586746212231e-05)
(-1.000027293604823 9.679815130780819e-06 -2.950098175622839e-05)
(-1.000035448242387 9.941907321398037e-06 -2.9867775556894e-05)
(-1.000043846809655 1.024313695197067e-05 -3.026226112368138e-05)
(-1.00005251680979 1.056528179477208e-05 -3.064255208084299e-05)
(-1.000061468951466 1.088610326815961e-05 -3.095955927026138e-05)
(-1.000070693695804 1.117947247308841e-05 -3.115809756668512e-05)
(-1.000080157957272 1.141578102314963e-05 -3.117851385107239e-05)
(-1.000089802244767 1.156273467572955e-05 -3.095892565434281e-05)
(-0.3333358581999027 1.52827418737898e-05 -2.976411073151015e-05)
(-1.000011395930164 1.540809435240934e-05 -2.989619205657617e-05)
(-1.000019105340983 1.565325777397311e-05 -3.01513327447392e-05)
(-1.000026978294533 1.600699561166156e-05 -3.051147141819687e-05)
(-1.00003507073388 1.645209847289682e-05 -3.094950498182506e-05)
(-1.000043428717321 1.696504189130368e-05 -3.142936621321926e-05)
(-1.000052085077992 1.751567050867189e-05 -3.190627631120688e-05)
(-1.000061055824669 1.806703165341261e-05 -3.232729333824117e-05)
(-1.000070336375842 1.857550958916941e-05 -3.263229573087062e-05)
(-1.000079897814714 1.899143215355886e-05 -3.275554523379607e-05)
(-1.000089683461954 1.926032444732354e-05 -3.262795850319018e-05)
(-0.3333358076923287 2.110461278670422e-05 -3.110753092958638e-05)
(-1.000011171942175 2.128379966670466e-05 -3.126863939267673e-05)
(-1.000018743110522 2.163462233761844e-05 -3.158125659762712e-05)
(-1.000026494764124 2.214173789116812e-05 -3.202609236198894e-05)
(-1.000034490196107 2.278156981727617e-05 -3.257402227253607e-05)
(-1.000042783237619 2.352174729258759e-05 -3.318596618729562e-05)
(-1.000051414820028 2.432055188705817e-05 -3.381290267328564e-05)
(-1.000060409112385 2.512654528574732e-05 -3.439616866290727e-05)
(-1.000069769295304 2.587859671754336e-05 -3.486822406108037e-05)
(-1.000079473142414 2.65065638425099e-05 -3.51540785344136e-05)
(-1.000089468715922 2.693289529132067e-05 -3.517357455511935e-05)
(-0.3333357387419828 2.663010386205762e-05 -3.288777775488005e-05)
(-1.00001086592061 2.686634858584106e-05 -3.308878895533314e-05)
(-1.000018247402758 2.732949891859352e-05 -3.348051457426392e-05)
(-1.000025831347054 2.800052504259305e-05 -3.404216543911497e-05)
(-1.000033690724478 2.885005217656554e-05 -3.474211170539542e-05)
(-1.000041889735251 2.983750497476123e-05 -3.553747037149593e-05)
(-1.000050480279999 3.091021024737039e-05 -3.637376434533747e-05)
(-1.000059497779839 3.200268211367426e-05 -3.718483909293159e-05)
(-1.000068956357286 3.303637953333538e-05 -3.789327059324483e-05)
(-1.000078843516141 3.392028426540961e-05 -3.841153626913724e-05)
(-1.000089114626845 3.455268191498982e-05 -3.864423657055583e-05)
(-0.3333356501958468 3.176789763781328e-05 -3.509325836485383e-05)
(-1.000010472547119 3.206466615823815e-05 -3.534595803245109e-05)
(-1.000017608934066 3.264737757335828e-05 -3.584031276063883e-05)
(-1.000024974210866 3.349389154161398e-05 -3.655389577952004e-05)
(-1.000032653216175 3.456983023975026e-05 -3.745227130153971e-05)
(-1.000040723079548 3.582733807361289e-05 -3.848817906111213e-05)
(-1.000049249642889 3.720371207505126e-05 -3.960069085947485e-05)
(-1.0000582829431 3.862017425726446e-05 -4.071456689290737e-05)
(-1.000067851693152 3.998114956971224e-05 -4.174011241727172e-05)
(-1.000077956840033 4.117450326424088e-05 -4.257390349005462e-05)
(-1.000088564484135 4.207325973282213e-05 -4.310079838953548e-05)
(-0.3333355408963016 3.642297697403768e-05 -3.770686776217385e-05)
(-1.000009986440677 3.678346305546757e-05 -3.802402225708561e-05)
(-1.000016818177375 3.74925103043822e-05 -3.864657882926468e-05)
(-1.000023908894387 3.852561547379448e-05 -3.955051114915682e-05)
(-1.000031357277946 3.984444797033867e-05 -4.069852756892334e-05)
(-1.000039255853416 4.139512965073429e-05 -4.203872014211738e-05)
(-1.000047687443815 4.310625135506276e-05 -4.350303721412858e-05)
(-1.000056720342344 4.488693701398819e-05 -4.500585085483128e-05)
(-1.000066402028279 4.662539068966956e-05 -4.644299638237986e-05)
(-1.000076751405978 4.818849418430924e-05 -4.769177173033603e-05)
(-1.000087749790363 4.942314199163362e-05 -4.861248351025654e-05)
(-0.3333354098717927 4.049723231247534e-05 -4.070443736589702e-05)
(-1.00000940301379 4.09237347849258e-05 -4.109974764089405e-05)
(-1.000015866781647 4.176418804524572e-05 -4.187806188925525e-05)
(-1.0000226222732 4.29926475993269e-05 -4.301401620377626e-05)
(-1.000029783701998 4.456814908593272e-05 -4.446773752199583e-05)
(-1.000037461276164 4.643241801183244e-05 -4.618280546106568e-05)
(-1.000045757835526 4.850713031379058e-05 -4.808382512734727e-05)
(-1.000054763803765 5.069106159094618e-05 -5.007392167099749e-05)
(-1.000064550135982 5.285762149842568e-05 -5.203261317387264e-05)
(-1.000075159088731 5.485345669953299e-05 -5.381468874181331e-05)
(-1.000086592913512 5.649899419046806e-05 -5.52508920300639e-05)
(-0.3333352565613226 4.389091872969424e-05 -4.40530897033874e-05)
(-1.000008719484943 4.438413147012113e-05 -4.454099855417902e-05)
(-1.00001474926456 4.535792599114085e-05 -4.550424494809144e-05)
(-1.000021104933346 4.678599609064814e-05 -4.69166579776594e-05)
(-1.000027917507534 4.862631795088383e-05 -4.873645505960433e-05)
(-1.000035316872188 5.081821761265815e-05 -5.090335121930519e-05)
(-1.000043428800236 5.32787509444076e-05 -5.333498735074405e-05)
(-1.00005236985116 5.589873937461574e-05 -5.592301346930415e-05)
(-1.00006223963317 5.853900045238457e-05 -5.852935634030085e-05)
(-1.000073110033285 6.102756146964e-05 -6.098344826804245e-05)
(-1.000085011306194 6.315892430319732e-05 -6.308147302049949e-05)
(-0.3333350810632967 4.650507774739406e-05 -4.770964338232773e-05)
(-1.000007936006528 4.706333060600062e-05 -4.830496787835504e-05)
(-1.000013464917027 4.81677249992707e-05 -4.94832194267293e-05)
(-1.00001935388124 4.97927879341554e-05 -5.121825332369769e-05)
(-1.000025751480476 5.18972132454998e-05 -5.346750715387503e-05)
(-1.00003280884317 5.44202477521516e-05 -5.616808920280435e-05)
(-1.000040677313764 5.727710359204633e-05 -5.92318000240265e-05)
(-1.000049503554257 6.035371690948932e-05 -6.253942180160079e-05)
(-1.000059421313887 6.350140390853901e-05 -6.593485627973414e-05)
(-1.00007053916488 6.653228213027131e-05 -6.922003382894753e-05)
(-1.00008292376886 6.9216714565945e-05 -7.215193739264739e-05)
(-0.3333348843927511 4.824498548883234e-05 -5.161924797445286e-05)
(-1.000007056837692 4.886349510346822e-05 -5.233661680533608e-05)
(-1.000012019807232 5.008953440688306e-05 -5.375972347434937e-05)
(-1.0000173754451 5.189970004026974e-05 -5.586359779857588e-05)
(-1.000023290047716 5.425528339397795e-05 -5.860651639280935e-05)
(-1.000029936981842 5.709798345998612e-05 -6.192491415536118e-05)
(-1.000037495331078 6.034432415757976e-05 -6.572673879860046e-05)
(-1.000046145550843 6.38790385414368e-05 -6.988354037685867e-05)
(-1.000056061067949 6.754794071950357e-05 -7.422188738594338e-05)
(-1.000067394722628 7.115119027956124e-05 -7.851514960101478e-05)
(-1.000080259148445 7.443836576337378e-05 -8.247729068070201e-05)
(-0.3333359412629211 1.915545273215958e-06 -2.654779549799333e-05)
(-1.000011762120948 1.928871391498879e-06 -2.663862194958022e-05)
(-1.000019690296332 1.954838755757786e-06 -2.681249311532112e-05)
(-1.000027743815294 1.992066599676406e-06 -2.705391242211975e-05)
(-1.000035963142714 2.038459586017948e-06 -2.733982618228132e-05)
(-1.000044378918884 2.091188229691401e-06 -2.763991855658779e-05)
(-1.000053008998472 2.146678282244364e-06 -2.791710892692293e-05)
(-1.000061855483508 2.200622153836203e-06 -2.812832996353814e-05)
(-1.000070901867642 2.248027461071403e-06 -2.8225669182706e-05)
(-1.000080110472963 2.283319037843559e-06 -2.815794878440537e-05)
(-1.000089420424913 2.300509543751033e-06 -2.787279554085888e-05)
(-0.3333359279368058 8.579950378173567e-06 -2.696047609597997e-05)
(-1.000011703180723 8.64036155823202e-06 -2.705942707862131e-05)
(-1.00001959550352 8.758123433150164e-06 -2.724934114819518e-05)
(-1.000027618384049 8.927062378649713e-06 -2.751429144860702e-05)
(-1.000035814460269 9.137801447511848e-06 -2.783053589477732e-05)
(-1.00004421659084 9.377662795628792e-06 -2.816676560404751e-05)
(-1.000052844847586 9.63060771130838e-06 -2.848454951266055e-05)
(-1.00006170345974 9.877272875602597e-06 -2.873906194824726e-05)
(-1.000070777822316 1.00951724273379e-05 -2.888018724801533e-05)
(-1.000080031749839 1.025914056373983e-05 -2.885408995541246e-05)
(-1.000089405228431 1.034208550332301e-05 -2.860531762835208e-05)
(-0.3333359009888015 1.41660884298567e-05 -2.778371567020666e-05)
(-1.000011583947893 1.426820646432961e-05 -2.789913797272695e-05)
(-1.000019403595512 1.446741473021263e-05 -2.812159343367554e-05)
(-1.00002736413728 1.475355986846341e-05 -2.843431536110935e-05)
(-1.000035512542298 1.511119230279683e-05 -2.881221209515247e-05)
(-1.00004388611262 1.551937291743849e-05 -2.922201775141263e-05)
(-1.000052509388392 1.595153209787975e-05 -2.962262457452931e-05)
(-1.000061390918793 1.637548047828125e-05 -2.996570085382286e-05)
(-1.000070519999954 1.675369025511135e-05 -3.019671141696126e-05)
(-1.000079863559887 1.704397728952141e-05 -3.025645765066893e-05)
(-1.000089363456335 1.720071034339028e-05 -3.00832357683135e-05)
(-0.3333358598581155 1.95498561779139e-05 -2.90129396787961e-05)
(-1.000011401854422 1.969566836157457e-05 -2.91536080797381e-05)
(-1.000019110150116 1.99804121714387e-05 -2.942598235808807e-05)
(-1.000026974606477 2.039016918109481e-05 -2.98120896309547e-05)
(-1.00003504864722 2.090370277540996e-05 -3.028488499409061e-05)
(-1.000043376251045 2.149212425495145e-05 -3.08082441198747e-05)
(-1.000051988740025 2.211861086420795e-05 -3.133711056237629e-05)
(-1.000060901301583 2.273831694132859e-05 -3.181792767649986e-05)
(-1.000070109325505 2.329865044359267e-05 -3.218950706132437e-05)
(-1.000079584729751 2.374010833916516e-05 -3.238449495529344e-05)
(-1.000089272556707 2.399786523965549e-05 -3.233158682564596e-05)
(-0.3333358037806843 2.464729835027766e-05 -3.064047253713334e-05)
(-1.000011153391902 2.48392619979221e-05 -3.081576133082027e-05)
(-1.000018709094692 2.521462525040263e-05 -3.115666734302138e-05)
(-1.000026440846676 2.575602440391118e-05 -3.164371396564022e-05)
(-1.000034410587224 2.643686762837666e-05 -3.224739258133388e-05)
(-1.000042671204531 2.722080114647699e-05 -3.292792305064423e-05)
(-1.000051263195706 2.806120509157852e-05 -3.36351240489122e-05)
(-1.000060210879213 2.890090286422614e-05 -3.430855675033163e-05)
(-1.000069518208557 2.967231452410952e-05 -3.487814164507552e-05)
(-1.000079164345091 3.029832015544195e-05 -3.526547200688262e-05)
(-1.000089099284526 3.069411223988176e-05 -3.538604978792987e-05)
(-0.3333357318823492 2.937202994335305e-05 -3.265460331573919e-05)
(-1.000010834527522 2.961274619117663e-05 -3.287460416258083e-05)
(-1.00001819338771 3.008416147931567e-05 -3.330414108373879e-05)
(-1.000025752364099 3.076590588158014e-05 -3.392203485170633e-05)
(-1.000033583870478 3.162663541589343e-05 -3.469593842631022e-05)
(-1.000041751913582 3.262322814823199e-05 -3.558177500796117e-05)
(-1.000050308638307 3.369995935642592e-05 -3.65232150169459e-05)
(-1.000059290192151 3.478788235877775e-05 -3.745139593261301e-05)
(-1.000068711908214 3.580470647834844e-05 -3.828514454630205e-05)
(-1.000078562932035 3.665552166598494e-05 -3.893200784338976e-05)
(-1.000088800588559 3.72347516692794e-05 -3.929042207731383e-05)
(-0.3333356433031834 3.363536652889459e-05 -3.503841550908095e-05)
(-1.000010441260367 3.392716365180348e-05 -3.531397966785111e-05)
(-1.000017555935002 3.44995834300477e-05 -3.585383420685445e-05)
(-1.00002489837274 3.53298191742012e-05 -3.66350302092694e-05)
(-1.000032553264957 3.638257111582273e-05 -3.762219260872574e-05)
(-1.000040597880591 3.760889655435309e-05 -3.876652755571033e-05)
(-1.000049098541495 3.894495543921296e-05 -4.000476187409975e-05)
(-1.000058106132091 4.031091642220356e-05 -4.125826296497912e-05)
(-1.000067650569249 4.16103776208487e-05 -4.24326700333089e-05)
(-1.000077734299901 4.273074322647122e-05 -4.341844601883873e-05)
(-1.000088325102313 4.354506159121023e-05 -4.409281819909791e-05)
(-0.3333355373509343 3.734706500901915e-05 -3.776845418751259e-05)
(-1.00000997031062 3.769150107091343e-05 -3.811113588760168e-05)
(-1.000016790732188 3.836840308002466e-05 -3.878448595921016e-05)
(-1.000023869376413 3.935323077941514e-05 -3.976388560326231e-05)
(-1.000031304793098 4.060772949232569e-05 -4.101098092921179e-05)
(-1.000039189529258 4.207836106484562e-05 -4.247213445657833e-05)
(-1.00004760661844 4.369450889107874e-05 -4.407665391934413e-05)
(-1.000056624769969 4.536675354316333e-05 -4.573509216437661e-05)
(-1.000066292081409 4.69856326992259e-05 -4.733802777997392e-05)
(-1.000076628248065 4.842142247829527e-05 -4.875585969253933e-05)
(-1.000087615488163 4.952558847093342e-05 -4.984026013122523e-05)
(-0.3333354136791422 4.041678820243543e-05 -4.08133315891907e-05)
(-1.000009419922294 4.081409260159325e-05 -4.123520877433098e-05)
(-1.000015894205293 4.159635642864148e-05 -4.206638071865926e-05)
(-1.000022659046327 4.273813246236112e-05 -4.328085783890902e-05)
(-1.000029828134672 4.419940927391517e-05 -4.483764850163615e-05)
(-1.000037511101192 4.592356122978809e-05 -4.667851539430489e-05)
(-1.000045810149017 4.783491229254366e-05 -4.872529472772725e-05)
(-1.000054815008283 4.983623011733966e-05 -5.087711200363132e-05)
(-1.000064595900314 5.180661316472898e-05 -5.300798449983176e-05)
(-1.000075194344129 5.360040295876442e-05 -5.496548468991165e-05)
(-1.000086611912176 5.504792454269516e-05 -5.657132483977714e-05)
(-0.3333352724813312 4.275637504802533e-05 -4.413240124812024e-05)
(-1.000008790742393 4.320486190545484e-05 -4.46457533078322e-05)
(-1.000014866692327 4.40895799149744e-05 -4.565958817602763e-05)
(-1.000021266323567 4.538509660223533e-05 -4.71470688935693e-05)
(-1.00002811936433 4.705100521995564e-05 -4.906524236301039e-05)
(-1.000035554026239 4.902935411266182e-05 -5.135195479345542e-05)
(-1.000043693949552 5.124149378943368e-05 -5.392204412653323e-05)
(-1.000052653069097 5.358466064597789e-05 -5.666316932315228e-05)
(-1.000062527908568 5.592879218019319e-05 -5.943184099007121e-05)
(-1.000073386936687 5.81142896258769e-05 -6.205047680547775e-05)
(-1.000085256906998 5.995168883599079e-05 -6.430659540206552e-05)
(-0.3333351146879058 4.428294773628483e-05 -4.767465961367846e-05)
(-1.000008086717426 4.477844914996243e-05 -4.82914885503564e-05)
(-1.000013713970596 4.575776669568651e-05 -4.951238727923029e-05)
(-1.000019697621022 4.719645009743097e-05 -5.131042812500648e-05)
(-1.000026183877161 4.90551555749618e-05 -5.364173062281402e-05)
(-1.000033320612622 5.12765479210309e-05 -5.644139401551668e-05)
(-1.000041254842484 5.378139606326818e-05 -5.961834004057315e-05)
(-1.000050127709892 5.646416151705577e-05 -6.304942934198418e-05)
(-1.000060066271334 5.918858243392212e-05 -6.657347091511405e-05)
(-1.000071171447473 6.178403006407153e-05 -6.99860938474936e-05)
(-1.000083501783271 6.404374559076932e-05 -7.303687562770596e-05)
(-0.3333359703138676 1.78022861992605e-06 -2.414110185490516e-05)
(-1.00001188900121 1.790958544134442e-06 -2.421852365494236e-05)
(-1.00001988897149 1.8118029361247e-06 -2.436635230375875e-05)
(-1.000027995242096 1.841525332224629e-06 -2.457063454325089e-05)
(-1.000036240990626 1.878259983989561e-06 -2.481065259319177e-05)
(-1.00004464999178 1.919506289027516e-06 -2.505923437529289e-05)
(-1.00005323389898 1.962133902466681e-06 -2.528325514485965e-05)
(-1.000061989595613 2.002408749035565e-06 -2.544439512088895e-05)
(-1.000070896730233 2.036051563791788e-06 -2.550022013226125e-05)
(-1.000079915600645 2.058340935029406e-06 -2.540564288562917e-05)
(-1.000088985600446 2.064271406698739e-06 -2.511480101752295e-05)
(-0.333335959583944 7.972146024659501e-06 -2.450945186856844e-05)
(-1.000011841639737 8.020772446215559e-06 -2.459379145614384e-05)
(-1.000019813121308 8.115272247532983e-06 -2.475526318243259e-05)
(-1.000027895556525 8.250112086827261e-06 -2.497951473585126e-05)
(-1.000036124019191 8.416936197352953e-06 -2.524519617573412e-05)
(-1.000044524180902 8.604534214473479e-06 -2.552423462674605e-05)
(-1.00005310954529 8.798854874036871e-06 -2.578229651033268e-05)
(-1.000061878719121 8.983111988936186e-06 -2.597950956155546e-05)
(-1.000070812831954 9.138035873324034e-06 -2.607152060438635e-05)
(-1.000079873270881 9.242325411662325e-06 -2.601095837605066e-05)
(-1.000088999951354 9.273350154437271e-06 -2.574934877264495e-05)
(-0.3333359378962545 1.315697602022337e-05 -2.52440054190607e-05)
(-1.00001174587499 1.323912117268126e-05 -2.534235506466826e-05)
(-1.000019659631849 1.339887937801261e-05 -2.553147011398989e-05)
(-1.000027693578147 1.362713320851571e-05 -2.579621530178534e-05)
(-1.000035886568498 1.391009404860805e-05 -2.611399613736215e-05)
(-1.000044268073103 1.422922485705411e-05 -2.645495864248869e-05)
(-1.000052855321205 1.456123227860915e-05 -2.678236768985668e-05)
(-1.000061650414613 1.487820643486529e-05 -2.705325096300239e-05)
(-1.00007063751681 1.514799978252792e-05 -2.721940386225757e-05)
(-1.000079780286364 1.533494126082494e-05 -2.722884714776749e-05)
(-1.000089019789638 1.540097420726913e-05 -2.702780972629885e-05)
(-0.3333359048205094 1.814582888437495e-05 -2.634018528936498e-05)
(-1.000011599736378 1.826301118867948e-05 -2.645997190916403e-05)
(-1.000019425109272 1.849115293151021e-05 -2.669141674156666e-05)
(-1.000027384341854 1.881771790790403e-05 -2.701824941265459e-05)
(-1.000035521927542 1.922370431373108e-05 -2.741606007394043e-05)
(-1.000043873042672 1.968348823266915e-05 -2.785237752507497e-05)
(-1.000052460563712 2.016474886001876e-05 -2.828690880389614e-05)
(-1.000061291951617 2.062858739293468e-05 -2.86720497156105e-05)
(-1.000070356097128 2.102997255271073e-05 -2.895379115718967e-05)
(-1.000079620296456 2.131865611643144e-05 -2.907314887409519e-05)
(-1.000089027610767 2.144069505671801e-05 -2.89682289341408e-05)
(-0.3333358597747187 2.285838081039759e-05 -2.779042908899188e-05)
(-1.000011400550945 2.301245978575395e-05 -2.79395448739083e-05)
(-1.00001910492513 2.331283452416958e-05 -2.822896347609568e-05)
(-1.000026961026764 2.374379606395747e-05 -2.864097763424292e-05)
(-1.000035020798174 2.428146112176665e-05 -2.914885892565655e-05)
(-1.000043327028557 2.489349084067167e-05 -2.97167565846699e-05)
(-1.000051910222045 2.553888777656614e-05 -3.02997285777402e-05)
(-1.000060785190921 2.616801856269994e-05 -3.084404391610551e-05)
(-1.000069947448087 2.672304070960847e-05 -3.128792122379689e-05)
(-1.00007936956386 2.713893163130984e-05 -3.156288218813888e-05)
(-1.000088997760243 2.734531683290529e-05 -3.159589069900625e-05)
(-0.3333358021011905 2.721288527407496e-05 -2.958339368870959e-05)
(-1.000011145282666 2.740579716631333e-05 -2.977028107929955e-05)
(-1.000018693772994 2.778245475010261e-05 -3.01344558389811e-05)
(-1.000026415715257 2.832431400356946e-05 -3.065654443092607e-05)
(-1.000034372232765 2.900307306852298e-05 -3.130709482976435e-05)
(-1.000042615616017 2.978021197908014e-05 -3.204622563634688e-05)
(-1.00005118603599 3.060658718467843e-05 -3.282335964719119e-05)
(-1.000060107798684 3.142226424923671e-05 -3.357721744856966e-05)
(-1.00006938518406 3.215681659618481e-05 -3.42362877145186e-05)
(-1.000078998020333 3.273035160900062e-05 -3.47200200580792e-05)
(-1.000088897282467 3.305553530696954e-05 -3.49409927617546e-05)
(-0.3333357311667938 3.112648856928857e-05 -3.170296585688039e-05)
(-1.000010830981471 3.135991234026745e-05 -3.193663886597611e-05)
(-1.000018186408293 3.18164388262154e-05 -3.239354567169967e-05)
(-1.000025740408446 3.247512719539718e-05 -3.305251348810533e-05)
(-1.000033564900198 3.330386823519066e-05 -3.388109572100008e-05)
(-1.000041723514441 3.4258685936095e-05 -3.483488613978303e-05)
(-1.000050268169775 3.52830467775789e-05 -3.585684406239173e-05)
(-1.000059234961509 3.630739448823299e-05 -3.687684836888069e-05)
(-1.000068639360727 3.724919019765225e-05 -3.781175921040585e-05)
(-1.000078470845149 3.801379048340434e-05 -3.85663194970269e-05)
(-1.000088687255084 3.849652400722543e-05 -3.90352563385687e-05)
(-0.3333356464853459 3.451606922855176e-05 -3.412714613212506e-05)
(-1.000010455332409 3.479103321035738e-05 -3.441712988316094e-05)
(-1.000017578558138 3.532976487230501e-05 -3.498582961230872e-05)
(-1.000024928285848 3.610946898291445e-05 -3.58102622032858e-05)
(-1.000032588674025 3.709499833970409e-05 -3.68548882922729e-05)