/*--------------------------------*- C++ -*----------------------------------*\
  =========                 |
  \\      /  F ield         | OpenFOAM: The Open Source CFD Toolbox
   \\    /   O peration     | Website:  https://openfoam.org
    \\  /    A nd           | Version:  7
     \\/     M anipulation  |
\*---------------------------------------------------------------------------*/
FoamFile
{
    version     2.0;
    format      ascii;
    class       volScalarField;
    location    "0";
    object      mag(grad(Phi));
}
// * * * * * * * * * * * * * * * * * * * * * * * * * * * * * * * * * * * * * //

dimensions      [0 1 -1 0 0 0 0];

internalField   nonuniform List<scalar> 
12683
(
0.333335870877057
1.00001144854826
1.000019196328711
1.000027112660397
1.000035254765671
1.000043669290903
1.000052388822756
1.00006142820036
1.000070780738961
1.000080414575951
1.000090269454233
0.3333358513048804
1.000011360951049
1.000019054491259
1.000026923011094
1.000035026540522
1.000043414710195
1.000052123231122
1.000061170104252
1.000070551663456
1.000080238657103
1.000090172687631
0.3333358116508656
1.000011183523995
1.000018766983324
1.00002653812057
1.000034562552794
1.000042895887608
1.000051580140543
1.000060639748843
1.00007007725865
1.000079868875906
1.000089960205834
0.3333357509855793
1.000010912010505
1.000018326467202
1.000025947238188
1.000033848242818
1.000042094065663
1.000050736308529
1.00005980933528
1.00006932544137
1.000079269607014
1.00008959415801
0.3333356680108272
1.00001054050985
1.000017722724863
1.000025135295352
1.000032863042355
1.000040982515221
1.000049558310456
1.000058638508221
1.000068249186664
1.000078388116266
1.00008901793751
0.3333355612043711
1.000010062083934
1.000016943646344
1.000024084240512
1.000031581999436
1.000039528366146
1.000048004460475
1.000057076217796
1.0000667881532
1.000077155756336
1.000088156761378
0.3333354290046178
1.000009469582834
1.000015976586511
1.000022774892528
1.000029978068733
1.000037695240455
1.000046027649564
1.000055063576025
1.000064871323813
1.000075490121801
1.000086919061588
0.3333352700448753
1.000008756695243
1.000014810105922
1.000021189348946
1.000028025139534
1.000035446813559
1.000043579299702
1.000052537996522
1.000062421050491
1.000073298653195
1.000085199261301
0.3333350834335138
1.000007919209438
1.000013436080586
1.000019313947047
1.000025701831595
1.000032751390503
1.000040614605341
1.000049438902095
1.000059358926627
1.000070484264272
1.000082882654818
0.3333348690700828
1.00000695644223
1.000011852118798
1.000017142711195
1.000022996010193
1.000029587496443
1.00003709914698
1.000045715213626
1.000055613872104
1.000066953585475
1.000079853207644
0.3333346279787129
1.000005872753915
1.000010064156697
1.000014681125079
1.000019909847032
1.000025950328361
1.000033016789246
1.000041334654931
1.000051132653954
1.000062628302089
1.000076005064457
0.3333359088178197
1.000011615258915
1.000019459263789
1.000027449498398
1.000035634488192
1.000044052534834
1.000052728497445
1.000061670476675
1.000070866519532
1.000080281542084
1.000089854749624
0.3333358926388211
1.000011542921425
1.000019342482823
1.000027294086813
1.000035448737832
1.000043847319996
1.000052517335058
1.000061469489934
1.000070694243669
1.000080158508438
1.000089802790794
0.3333358598790868
1.000011396495753
1.000019105918035
1.000026978888104
1.00003507134813
1.000043429355102
1.000052085740362
1.000061056510363
1.000070337080751
1.000079898531457
1.000089684179661
0.3333358098119377
1.000011172657531
1.000018743843225
1.000026495522067
1.000034490986114
1.000042784064874
1.000051415687384
1.00006041001955
1.000069770237985
1.000079474111541
1.000089469697115
0.333335741428116
1.000010866828934
1.000018248336664
1.000025832318478
1.000033691744114
1.0000418908118
1.000050481419187
1.000059498983209
1.00006895762085
1.000078844829053
1.000089115970358
0.3333356535569276
1.000010473685847
1.000017610109234
1.000024975439849
1.000032654515006
1.000040724461961
1.000049251118982
1.000058284517605
1.000067853363403
1.000077958593834
1.000088566297894
0.333335545018936
1.000009987840088
1.000016819626974
1.000023910418584
1.00003135889987
1.000039257593753
1.000047689319057
1.000056722362411
1.000066404193574
1.000076753704119
1.000087752193063
0.3333354148170775
1.000009404695745
1.000015868530629
1.000022624122445
1.000029785683789
1.000037463420494
1.000045760167917
1.000054766342117
1.000064552886465
1.00007516204097
1.00008659603564
0.3333352623619203
1.000008721461852
1.000014751328519
1.000021107128351
1.000027919877348
1.000035319458918
1.000043431641735
1.000052372977022
1.000062243059207
1.000073113754685
1.000085015290017
0.3333350877216603
1.000007938280673
1.000013467301354
1.000019356432506
1.000025754256452
1.000032811901279
1.000040680708162
1.000049507330945
1.000059425503555
1.000070543773534
1.000082928766874
0.3333348918809043
1.000007059401055
1.000012022506734
1.000017378352209
1.000023293236821
1.000029940529173
1.00003749931165
1.000046150032757
1.000056066103473
1.00006740033581
1.000080265319737
0.3333359423255949
1.000011762477612
1.00001969065769
1.000027744183225
1.000035963518512
1.000044379303036
1.000053009390438
1.000061855881506
1.000070902268485
1.000080110871973
1.000089420815971
0.3333359291375207
1.000011703584153
1.000019595913127
1.000027618802402
1.000035814889273
1.000044217031474
1.000052845299621
1.000061703921459
1.000070778290272
1.000080032218706
1.000089405691001
0.3333359024477097
1.000011584438859
1.000019404095567
1.000027364650355
1.000035513071525
1.000043886659985
1.000052509954338
1.000061391501807
1.000070520596176
1.000079864162814
1.000089364056714
0.3333358616940229
1.000011402473341
1.000019110782656
1.000026975258719
1.000035049324266
1.000043376956544
1.00005198947561
1.000060902066242
1.000070110114945
1.000079585535861
1.00008927336725
0.3333358061001589
1.000011154175193
1.000018709897935
1.000026441679003
1.000034411456595
1.000042672117102
1.000051264155033
1.000060211885322
1.000069519256949
1.000079165425827
1.000089100381579
0.3333357347758872
1.000010835506338
1.000018194394803
1.000025753412694
1.000033584972467
1.000041753078702
1.000050309873062
1.000059291498475
1.000068713281984
1.000078564361587
1.000088802053511
0.3333356468417015
1.000010442459419
1.000017557172839
1.000024899667868
1.000032554634473
1.000040599339168
1.000049100099964
1.000058107795601
1.000067652335107
1.000077736155295
1.000088327022318
0.3333355415827954
1.00000997174716
1.000016792220348
1.000023870941297
1.00003130645849
1.000039191316423
1.000047608544329
1.000056626844772
1.000066294305531
1.000076630608768
1.000087617956364
0.3333354186279785
1.000009421605345
1.000015895955184
1.000022660896176
1.000029830116614
1.00003751324504
1.000045812480076
1.000054817544209
1.000064598647023
1.000075197291011
1.0000866150272
0.3333352781449629
1.000008792672327
1.000014868706641
1.000021268464848
1.000028121674863
1.0000355565466
1.00004369671607
1.000052656109952
1.000062531238446
1.000073390550188
1.00008526077144
0.3333351210386508
1.000008088885997
1.00001371624319
1.000019700051107
1.000026186519014
1.000033323519983
1.000041258065743
1.000050131291429
1.000060070238753
1.000071175804822
1.00008350650087
0.3333359711928037
1.000011889296079
1.000019889269985
1.000027995545641
1.000036241300163
1.00004465030759
1.000053234220509
1.000061989921306
1.000070897057413
1.000079915925461
1.000088985917925
0.3333359605803386
1.000011841974327
1.000019813460641
1.000027895902535
1.00003612437326
1.000044524543648
1.000053109916343
1.000061879096913
1.000070813213541
1.000079873651845
1.000089000325832
0.3333359391117938
1.00001174628374
1.000019660047534
1.000027694003707
1.000035887006198
1.000044268524251
1.000052855785843
1.000061650891203
1.000070638001955
1.00007978077461
1.000089020273441
0.3333359063551122
1.000011600253206
1.000019425636439
1.000027384883886
1.000035522488117
1.000043873624244
1.000052461167063
1.000061292575391
1.000070356737374
1.000079620946271
1.00008902826014
0.3333358617169243
1.000011401206033
1.000019105595298
1.000026961718783
1.000035021517771
1.00004332777991
1.000051911007158
1.000060786008931
1.000069948294555
1.00007937043016
1.000088998633198
0.33333580452475
1.00001114610133
1.000018694612953
1.000026416586279
1.00003437314339
1.000042616572887
1.000051187043006
1.000060108856014
1.000069386287075
1.000078999158621
1.000088898439135
0.333335734127677
1.000010831983156
1.000018187439088
1.00002574148197
1.000033566028699
1.000041724707954
1.000050269435014
1.000059236300495
1.000068640769246
1.000078472311239
1.000088688757818
0.333335650019353
1.000010456529874
1.000017579794217
1.00002492957895
1.000032590041141
1.000040637893164
1.000049138882408
1.000058143314545
1.00006768054886
1.000077752535955
1.000088326675365
0.3333355519786766
1.000010018684591
1.000016869421116
1.000023976697608
1.00003143812955
1.000039345099789
1.000047779217083
1.000056807507569
1.000066476175745
1.00007680292286
1.000087768052915
0.3333354402209203
1.000009519333975
1.000016057226148
1.00002288292048
1.000030108419139
1.000037841131853
1.000046180419063
1.000055212525003
1.000065003616443
1.00007559079405
1.000086971215279
0.3333353155481469
1.000008961986817
1.00001514843146
1.000021654246216
1.000028606397836
1.000036129367909
1.000044341917388
1.000053351877227
1.000063248528988
1.000074092276032
1.000085901595829
0.3333359954027069
1.000011995644724
1.000020055213916
1.000028204218411
1.000036469431797
1.000044868643788
1.000053408162579
1.000062080447538
1.000070861982263
1.000079711537343
1.000088569007546
0.3333359869524817
1.000011958033208
1.000019995268286
1.000028126085145
1.000036378910728
1.000044773155759
1.000053316670509
1.000062003305854
1.000070810688951
1.000079698365127
1.000088606497725
0.333335969862697
1.000011882003736
1.000019873994658
1.000027967804589
1.000036195157703
1.000044578709642
1.00005312941271
1.000061843935775
1.000070702244959
1.000079665501447
1.000088674481761
0.3333359438014801
1.000011766044918
1.000019688788721
1.000027725563341
1.000035913012378
1.000044278663169
1.000052838163015
1.000061592491674
1.000070525250467
1.000079600188727
1.000088759192441
0.3333359083153319
1.000011608118445
1.000019436119845
1.000027394152607
1.000035525363744
1.00004386377608
1.000052431366184
1.000061235009533
1.00007026338289
1.000079483987805
1.000088840542317
0.3333358628962494
1.000011405935904
1.000019111984283
1.000026967586503
1.000035023915009
1.0000433230953
1.000051895107825
1.000060754415373
1.00006989638816
1.000079293688808
1.000088892886925
0.3333358070626097
1.000011157319082
1.000018712498778
1.000026439916919
1.00003440020044
1.000042645143936
1.00005121443325
1.000060131917804
1.000069401476012
1.000079002625549
1.000088886166536
0.3333357404567901
1.000010860635181
1.00001823462102
1.000025806230013
1.000033646840792
1.000041819407389
1.000050375020851
1.000059348806954
1.000068755162942
1.000078582461332
1.000088787517575
0.3333356629553479
1.000010515288971
1.00001767696907
1.000025063789727
1.000032759001031
1.000040838084048
1.000049365187993
1.000058388655804
1.000067935582959
1.000078005495456
1.000088563435277
0.3333355747852327
1.000010122243652
1.000017040695452
1.000024213270539
1.000031735983651
1.000039698031611
1.000048178165923
1.000057239874693
1.000066925241273
1.000077247498619
1.000088182534868
0.3333354766373549
1.00000968453105
1.000016330350644
1.00002325999201
1.000030582852435
1.000038402791807
1.000046814522315
1.000055898504104
1.000065714114022
1.000076291011076
1.000087618888496
0.3333360150756706
1.00001208205634
1.000020189563178
1.000028372087408
1.000036650966325
1.00004503894554
1.00005353787413
1.00006213657708
1.000070809010729
1.000079512835871
1.000088188568521
0.3333360083863329
1.000012052349491
1.000020142512494
1.000028311399213
1.000036581794973
1.000044967837606
1.000053472667587
1.000062086236974
1.000070783382655
1.000079522301777
1.000088243595628
0.3333359948591997
1.000011992310186
1.000020047337896
1.000028188456866
1.000036441340232
1.00004482291133
1.0000533389058
1.000061981554546
1.000070727492609
1.000079536037199
1.00008834801405
0.3333359742373737
1.00001190077098
1.000019902025169
1.000028000305443
1.00003622559403
1.000044598993
1.000053130159215
1.000061814801279
1.000070632341721
1.00007954389466
1.000088490756744
0.333335946171321
1.000011776167476
1.0000197038601
1.000027742931121
1.00003592906076
1.000044288917501
1.000052837432905
1.00006157505655
1.000070485089713
1.000079531255846
1.000088655728161
0.3333359102736829
1.000011616762833
1.000019449796125
1.000027411762788
1.00003554537863
1.000043884249062
1.000052449959229
1.000061249036837
1.000070269878026
1.00007947979988
1.000088822465135
0.3333358661844072
1.000011420936845
1.000019136930364
1.000027002325655
1.000035068135363
1.000043376235877
1.000051956258724
1.000060822219976
1.000069968963416
1.000079368582402
1.000088967091173
0.3333358136482656
1.000011187530915
1.000018763074255
1.000026511029497
1.000034491860261
1.000042756983482
1.000051345461157
1.000060280266646
1.000069564178148
1.000079175458464
1.00008906361358
0.333335752601253
1.000010916232565
1.000018327392766
1.000025936058856
1.000033813156162
1.00004202081079
1.000050608855661
1.000059610718686
1.000069038711694
1.000078878863042
1.000089085599992
0.3333356832601505
1.000010607975493
1.000017831074117
1.000025278314742
1.000033031912128
1.000041165725279
1.000049741607571
1.000058804919115
1.000068379173325
1.000078459929698
1.000089008240268
0.333335606208259
1.000010265323186
1.000017277977408
1.0000245423368
1.000032152510304
1.000040194919559
1.000048744538485
1.000057860051822
1.000067577842783
1.000077904873273
1.000088810747842
0.3333360304140779
1.000012149423605
1.000020293950339
1.000028501735595
1.000036789708671
1.000045166550124
1.000053630546609
1.000062167658402
1.000070749900338
1.000079334158925
1.000087861585067
0.3333360251017123
1.000012125895941
1.000020256966805
1.00002845463987
1.000036737126812
1.000045114318681
1.000053585597742
1.00006213784844
1.000070743768426
1.000079360605963
1.000087929468968
0.3333360143582629
1.000012078346189
1.000020182150483
1.000028359206518
1.000036630283081
1.000045007691789
1.000053493014388
1.000062075000961
1.000070727741229
1.000079409241045
1.000088060561136
0.333335997981015
1.000012005855388
1.00002006791289
1.000028213098818
1.000036465997188
1.000044842547696
1.000053347649734
1.000061972893427
1.000070694520979
1.000079471758377
1.00008824569178
0.3333359756950038
1.000011907198903
1.000019912124512
1.000028013157197
1.000036239925688
1.000044613197201
1.000053142323821
1.000061822754652
1.000070633716972
1.000079536216014
1.000088471549583
0.33333594719837
1.000011781030348
1.000019712415722
1.000027755809815
1.000035947070906
1.000044312974819
1.000052868475251
1.000061613949406
1.00007053252972
1.000079587681386
1.000088721247103
0.3333359122152594
1.000011626115847
1.000019466562522
1.000027437601928
1.000035582441356
1.00004393501174
1.000052517021054
1.000061334891516
1.000070376675477
1.000079609117835
1.000088975114492
0.3333358705581877
1.000011441610526
1.000019172943267
1.000027055825969
1.000035141843685
1.000043473171367
1.000052079409035
1.000060974176402
1.000070151551133
1.000079582523657
1.000089211745623
0.3333358221964768
1.000011227362162
1.000018831042853
1.000026609222204
1.000034622771308
1.000042923111095
1.000051548828494
1.000060521904578
1.000069843621163
1.000079490318659
1.000089409307114
0.3333357673261824
1.000010984222031
1.000018441971805
1.000026098706506
1.000034025338279
1.000042283413604
1.000050921521271
1.000059971142043
1.000069441980882
1.000079316946032
1.000089547096538
0.3333357064355875
1.000010714336704
1.000018008957598
1.000025528067314
1.000033353187174
1.000041556706842
1.000050198106498
1.000059319429857
1.000068940013653
1.000079050619088
1.000089607297878
0.3333360416502135
1.000012198770209
1.000020370189513
1.000028595923794
1.000036889565194
1.000045256731784
1.000053693045362
1.000062182346861
1.000070695245881
1.000079188117809
1.000087602672345
0.3333360373497917
1.00001217978237
1.000020340594398
1.000028558787461
1.000036849111211
1.000045218259015
1.000053662804677
1.00006216736649
1.000070703096311
1.000079226610047
1.000087679489052
0.333336028650732
1.000012141402576
1.000020280708952
1.000028483495335
1.00003676681924
1.000045139523085
1.000053600089856
1.000062134704931
1.000070715623932
1.000079299969026
1.00008782909373
0.3333360153874841
1.000012082882219
1.000020189236302
1.000028368133627
1.000036640074249
1.00004501711891
1.000053500625695
1.000062079159995
1.000070726679998
1.00007940112896
1.000088043590081
0.3333359973359072
1.000012003228065
1.000020064444764
1.000028210123235
1.000036465314326
1.000044846356267
1.000053358457667
1.000061993407697
1.000070727518067
1.000079519938787
1.000088311524124
0.3333359742516931
1.000011901356454
1.000019904419991
1.000028006563805
1.000036238457308
1.000044621755745
1.000053166499372
1.000061868578843
1.000070707372879
1.000079643712444
1.000088618372312
0.3333359459144836
1.000011776287993
1.000019707385394
1.000027754673134
1.000035955448563
1.000044337689647
1.00005291724579
1.000061695017383
1.00007065423024
1.00007975797092
1.000088947211895
0.3333359121793107
1.000011627374855
1.000019472077203
1.000027452303931
1.000035612909644
1.000043989147264
1.000052603633064
1.000061463205265
1.000070555779039
1.000079847375357
1.000089279582641
0.3333358730323473
1.000011454547217
1.000019198153078
1.00002709851058
1.00003520885529
1.000043572589158
1.00005222001034
1.00006116482266
1.000070400520629
1.00007989683626
1.000089596536532
0.3333358286470436
1.000011258561649
1.000018886606006
1.000026694127681
1.000034743433428
1.000043086840556
1.000051763170944
1.000060793892303
1.00007017899029
1.000079892762653
1.000089879852855
0.3333357794356799
1.000011041229521
1.000018540147941
1.000026242312626
1.000034219629069
1.000042533955525
1.000051233369837
1.000060347933501
1.000069885018551
1.000079824387474
1.000090113368791
0.333336049000984
1.000012231051499
1.00002041994869
1.000028657141786
1.000036953984523
1.000045314048176
1.000053731182776
1.000062187831752
1.000070653693545
1.000079084837096
1.000087423384642
0.3333360453644778
1.000012215041534
1.00002039519612
1.00002862652504
1.000036921456187
1.000045284546621
1.000053710504235
1.000062182454721
1.000070670548843
1.000079131019943
1.000087505810219
0.3333360380060518
1.000012182673764
1.000020345091677
1.000028564410525
1.000036855199443
1.000045223984857
1.000053667193644
1.000062169325233
1.000070701449983
1.000079220149821
1.000087667029744
0.3333360267832403
1.000012133305457
1.000020268519593
1.000028469146755
1.000036752949378
1.000045129400981
1.000053597513836
1.000062143869739
1.000070740954585
1.000079345921573
1.000087899926467
0.3333360115033276
1.000012066086311
1.000020163993778
1.000028338512725
1.000036611625678
1.000044996719478
1.000053496262973
1.000062099651384
1.00007078132202
1.000079499277311
1.000088194177886
0.3333359919572272
1.000011980093397
1.000020029878333
1.000028170018524
1.00003642770535
1.000044821184615
1.000053357253422
1.000062028875307
1.00007081302223
1.000079668892466
1.000088536690606
0.333335967957911
1.000011874500121
1.000019864665533
1.000027961286441
1.000036197697564
1.000044597915729
1.000053173929598
1.000061923045942
1.000070825404183
1.000079841822381
1.000088912188121
0.3333359393848335
1.000011748771945
1.000019667298446
1.00002771049495
1.00003591870018
1.000044322562986
1.000052940104128
1.000061773758467
1.000070807510732
1.00008000430225
1.000089303952529
0.3333359062315807
1.000011602876334
1.00001943751859
1.000027416860045
1.000035589007689
1.000043992030275
1.000052650778239
1.000061573592219
1.000070749012554
1.000080142680968
1.000089694710205
0.3333358686533101
1.000011437491586
1.00001917621338
1.000027081120016
1.000035208729368
1.000043605219199
1.000052302998225
1.000061317058493
1.000070641217359
1.00008024445209
1.000090067635353
0.3333358270095158
1.00001125419571
1.000018885732843
1.000026705981963
1.000034780366833
1.00004316373563
1.000051896683962
1.000061001536956
1.000070478090668
1.000080299324549
1.000090407425071
0.3333360526280769
1.000012246994766
1.000020444488632
1.000028687252384
1.000036985516724
1.000045341828245
1.000053749152846
1.00006218924014
1.000070631340986
1.000079031381586
1.000087331702574
0.3333360493200453
1.000012232458373
1.000020422131191
1.000028659857799
1.000036956901317
1.000045316749631
1.000053733179928
1.000062188577377
1.000070652601341
1.000079081305804
1.000087416827088
0.3333360426246976
1.000012203064714
1.000020376862922
1.000028604253812
1.000036898558373
1.0000452651444
1.000053699414101
1.000062185031427
1.000070692485669
1.000079178103595
1.000087583632941
0.3333360324106026
1.000012158221623
1.00002030765457
1.000028518914189
1.000036808389993
1.000045184261908
1.00005364437434
1.000062174327632
1.000070745887024
1.000079315830538
1.000087825372693
0.3333360184999947
1.000012097146872
1.000020213136937
1.000028401788264
1.00003668354479
1.000045070318585
1.000053563215996
1.000062150449657
1.000070805540942
1.000079485945636
1.00008813225827
0.3333360007004415
1.000012018993518
1.000020091805786
1.000028250580194
1.000036520764096
1.000044918900567
1.000053450175656
1.000062106109263
1.000070862499304
1.000079677765137
1.00008849186877
0.3333359788404711
1.000011923006338
1.000019942279025
1.0000280631014
1.000036316820843
1.000044725476818
1.000053299142154
1.000062033354
1.000070906748747
1.000079879061732
1.000088889697107
0.3333359528105634
1.000011808702075
1.000019763593706
1.000027837679027
1.000036069031258
1.000044486001562
1.000053104332363
1.000061924293404
1.00007092795848
1.000080076799437
1.000089309832849
0.3333359226068793
1.000011676061551
1.000019555524008
1.000027573595871
1.000035775809764
1.000044197573325
1.000052861038314
1.000061771911839
1.000070916329496
1.00008025798277
1.000089735768639
0.3333358883744576
1.000011525719543
1.00001931889667
1.000027271529765
1.000035437228621
1.000043859107353
1.000052566399779
1.00006157092216
1.000070863502458
1.00008041058372
1.000090151303307
0.333335850445832
1.000011359134605
1.000019055875558
1.000026933954329
1.000035055535031
1.000043471966923
1.00005222014327
1.000061318599309
1.000070763464961
1.00008052449278
1.000090541497341
0.3333355224681311
0.3333356403592152
1.000010421389548
1.000017537756493
0.333335726090642
1.000010805600601
1.000018163522236
1.000025748995249
1.000033643860703
1.000041919968222
0.3333357818975566
1.00001105561445
1.000018570140782
1.00002629648246
1.000034309290939
1.00004267248844
1.000051435351409
1.000060628117509
0.3333358093708206
1.000011178720173
1.000018770183847
1.000026565457417
1.000034635571756
1.000043040490444
1.000051825216704
1.000061015518752
1.000070613382362
1.000080592421586
1.000100285877554
1.000100295338569
1.000100295298789
1.000100247629437
1.000100094672857
1.000099759055359
1.000099144064946
1.000098135214894
1.000096603822338
1.00009441362464
1.000091431550438
1.000099528263638
1.000099569829033
1.000099638218441
1.000099703932815
1.000099722719022
1.000099635846295
1.000099370938106
1.000098843790171
1.000097961716663
1.00009662904138
1.000094755332415
1.000098776116981
1.000098842991725
1.000098965255558
1.000099120024401
1.000099273213269
1.00009938003027
1.000099385960781
1.000099228527927
1.000098840166661
1.000098152562249
1.000097102742389
1.000098053085487
1.000098139300991
1.000098302703763
1.000098525372521
1.000098780775215
1.00009903433128
1.000099244380346
1.000099363739569
1.000099342049308
1.000099129093306
1.000098679210904
1.000097382478935
1.000097483010532
1.000097676862115
1.000097949760488
1.000098280674112
1.00009864236278
1.000099002252013
1.000099323743351
1.000099568072751
1.000099696806501
1.000099675004164
1.000096786202555
1.000096896976889
1.000097112627427
1.000097421505258
1.000097806502229
1.000098245551808
1.000098712384811
1.000099177604899
1.000099610142926
1.000099979125461
1.00010025614673
1.000096283839825
1.000096401660967
1.000096632328446
1.000096966029751
1.00009738838191
1.000097880874476
1.000098421512734
1.000098985697539
1.000099547369321
1.000100080423905
1.00010056037329
1.000095891903906
1.000096014323871
1.00009625480935
1.000096604777102
1.000097051657087
1.000097579283961
1.000098168449482
1.000098797635442
1.000099443937116
1.000100084171474
1.000100696138803
1.000095623259203
1.000095748413081
1.000095994746526
1.000096354427485
1.000096815988663
1.0000973646817
1.00009798296734
1.000098651151729
1.000099348170045
1.000100052505616
1.000100743213132
1.00009548670323
1.000095613123507
1.000095862169997
1.000096226366217
1.000096694765315
1.000097253284933
1.000097885165948
1.000098571561091
1.000099292251118
1.000100026474263
1.000100753838433
1.000126284828021
1.000110153290114
1.000119727602697
1.000110292549784
1.000120016724214
1.000110553339053
1.000120579871435
1.000110899737618
1.000121386168725
1.000111276747414
1.000122387598889
1.000111609278397
1.000123517204824
1.000111801369755
1.000124687143468
1.000111736259145
1.000125787129054
1.000111278174322
1.000126684093951
1.000110277011523
1.000127224264422
1.000108577305174
1.000127239233645
1.000109005926332
1.000118155660938
1.000109160145341
1.000118438473076
1.000109454708116
1.000118992107174
1.000109861652758
1.000119792187472
1.000110338536575
1.000120801175473
1.000110828096862
1.00012196741188
1.000111258238877
1.000123224209065
1.000111542788776
1.000124489393796
1.000111583596276
1.000125665871102
1.000111274708516
1.000126643971355
1.000110509401762
1.000127306496828
1.000107894224362
1.00011665427516
1.000108058476824
1.000116928419632
1.000108376053253
1.000117467064933
1.000108825033826
1.000118250710616
1.000109372402242
1.000119249585692
1.000109974077476
1.000120423191629
1.000110575275449
1.000121719974035
1.00011111149883
1.000123077404244
1.000111510528617
1.000124422846659
1.000111695842866
1.000125675675372
1.000111591874248
1.000126751145116
1.000106847391011
1.000115258168131
1.000107017692136
1.000115522285039
1.000107349572168
1.000116042614718
1.000107825606076
1.000116803246401
1.00010841971667
1.000117780065952
1.000109097387399
1.00011894058368
1.000109816167564
1.000120243907516
1.000110526665186
1.000121641052103
1.000111174257048
1.000123075822854
1.000111701754986
1.00012448654779
1.000112053226889
1.000125808923804
1.000105893075297
1.000113999132875
1.000106066422852
1.00011425281375
1.000106406015815
1.000114753538943
1.000106897710136
1.000115487997353
1.000107520445055
1.000116436131391
1.00010824652695
1.000117571118424
1.000109042155853
1.000118859487561
1.000109868318681
1.000120261497868
1.000110682185216
1.000121731926588
1.000111439134659
1.000123221424522
1.000112095497719
1.000124678574751
1.000105056457058
1.000112905339724
1.000105230785064
1.000113149025012
1.000105573504278
1.00011363066629
1.000106072818371
1.000114338803152
1.000106711225217
1.000115256241152
1.000107465813911
1.000116360111379
1.000108308757117
1.000117622047116
1.000109208075912
1.000119008559978
1.000110128754751
1.000120481707169
1.000111034271729
1.000122000139986
1.000111888572101
1.000123520601012
1.000104359503417
1.000112000821834
1.000104533575887
1.000112235667121
1.000104876600361
1.000112700262324
1.000105378417568
1.000113384434575
1.000106023988505
1.000114272967013
1.000106793678832
1.000115345695532
1.000107663699988
1.000116577704502
1.000108606754011
1.000117939675862
1.000109592925793
1.000119398448812
1.000110590853055
1.000120917842314
1.000111569176301
1.000122459773575
1.000103820392196
1.000111305116141
1.000103993660148
1.000111532845174
1.000104335622931
1.000111983632809
1.000104837214924
1.000112648166224
1.000105485032744
1.00011351254223
1.000106261599884
1.000114558380095
1.000107145759517
1.000115763019159
1.000108113224637
1.000117099838294
1.000109137309736
1.000118538734598
1.000110189856321
1.000120046792719
1.000111242343966
1.000121589161699
1.00010345308788
1.000110833028844
1.000103625526259
1.000111055784978
1.000103966165013
1.000111496887267
1.000104466606268
1.000112147548641
1.000105114440962
1.000112994665821
1.000105893496269
1.000114020938303
1.000106784193048
1.000115205062676
1.00010776403226
1.000116522029638
1.000108808224167
1.000117943550225
1.000109890464277
1.000119438632076
1.000110983843687
1.000120974315201
1.000103267048336
1.000110594492469
1.000103438983761
1.000110814694162
1.000103778775439
1.000111250811166
1.000104278341539
1.00011189430558
1.000104925742234
1.000112732452292
1.000105705417723
1.000113748459913
1.000106598527142
1.000114921662331
1.000107583403265
1.000116227804053
1.000108636132232
1.000117639440873
1.000109731258709
1.000119126472512
1.000110842603423
1.000120656813816
1.000163652617553
1.000181889897692
1.000147449393769
1.000168581560564
1.000189851040354
1.000149150643414
1.000173496152327
1.000198407153446
1.000129028140765
1.000137836325651
1.000129484859126
1.000138471234743
1.000130387324273
1.000139735590574
1.000131712746942
1.000141617552575
1.000133424799331
1.000144097003121
1.000135471174508
1.000147142715476
1.000137780598384
1.000150708612215
1.000140259684161
1.000154729292746
1.000142790304722
1.000159115245105
1.00014522856775
1.000163748546807
1.000182119943785
1.000147406979609
1.000168480413566
1.000189681145295
1.000127003714254
1.000135350405788
1.000127428989955
1.000135925929001
1.000128270507397
1.000137071883449
1.000129509649862
1.000138777434141
1.000131117111756
1.000141024665639
1.000133051378653
1.000143786627812
1.000135256952674
1.000147024824453
1.000137662635001
1.000150686321544
1.000140180354016
1.000154700808296
1.000142705253779
1.000158978174424
1.00014511799262
1.00016340745552
1.000181520767471
1.000125088904929
1.000133015668976
1.000125483642784
1.000133536548713
1.000126265517375
1.000134573441597
1.000127418974912
1.000136116150404