/*--------------------------------*- C++ -*----------------------------------*\
  =========                 |
  \\      /  F ield         | OpenFOAM: The Open Source CFD Toolbox
   \\    /   O peration     | Website:  https://openfoam.org
    \\  /    A nd           | Version:  7
     \\/     M anipulation  |
\*---------------------------------------------------------------------------*/
FoamFile
{
    version     2.0;
    format      ascii;
    class       volScalarField;
    location    "0";
    object      p;
}
// * * * * * * * * * * * * * * * * * * * * * * * * * * * * * * * * * * * * * //

dimensions      [0 2 -2 0 0 0 0];

internalField   nonuniform List<scalar> 
12683
(
-4.107058308698786e-05
-4.217086208719294e-05
-4.446279337191081e-05
-4.805541405903906e-05
-5.306614950855791e-05
-5.961225636634621e-05
-6.779990255875639e-05
-7.771108535230717e-05
-8.938840922176164e-05
-0.0001028181422735408
-0.0001179124914130772
-4.014051300983135e-05
-4.122089297825909e-05
-4.347602856376854e-05
-4.701898273317682e-05
-5.197229022953902e-05
-5.845974261835145e-05
-6.659567284955787e-05
-7.647191580116017e-05
-8.814237303396187e-05
-0.0001016055077840921
-0.0001167856389170621
-3.830198875290933e-05
-3.934229998391202e-05
-4.152315770243683e-05
-4.496547185028781e-05
-4.980176695704642e-05
-5.616868753001625e-05
-6.419674091975854e-05
-7.399740269106381e-05
-8.564732057876413e-05
-9.916974637185752e-05
-0.0001145139035843711
-3.559817347760281e-05
-3.657778126229611e-05
-3.864565363678862e-05
-4.193395197048335e-05
-4.658960031221161e-05
-5.276795869274047e-05
-6.062337387794176e-05
-7.02966513196285e-05
-8.189888487325897e-05
-9.549145152450431e-05
-0.0001110625929527512
-3.209355418471546e-05
-3.299131293385645e-05
-3.490601740910379e-05
-3.798384510889261e-05
-4.238979571705352e-05
-4.830307466373454e-05
-5.59089380837887e-05
-6.538693035982901e-05
-7.689453436885079e-05
-9.054556533609115e-05
-0.0001063832662455165
-2.787339967464942e-05
-2.866781802920129e-05
-3.038786293335759e-05
-3.319562140438891e-05
-3.727682676870868e-05
-4.283860336638233e-05
-5.010325917176572e-05
-5.929791740069232e-05
-7.063846834705371e-05
-8.430651020542458e-05
-0.0001004185283452617
-2.304267643049297e-05
-2.371233903808387e-05
-2.519560438777111e-05
-2.76712628351208e-05
-3.134712702851304e-05
-3.646089401662774e-05
-4.327671973649487e-05
-5.207714243413904e-05
-6.314817977291869e-05
-7.675539398173254e-05
-9.310914720839591e-05
-1.772416895695866e-05
-1.824843436961522e-05
-1.945342146765377e-05
-2.153411576776497e-05
-2.472016515554541e-05
-2.928069616499742e-05
-3.552467465694142e-05
-4.379630524593095e-05
-5.446254295080181e-05
-6.788941439675933e-05
-8.440395519089487e-05
-1.205556388609228e-05
-1.241552127866395e-05
-1.330315866511738e-05
-1.492770289464965e-05
-1.753858444840825e-05
-2.143507545091629e-05
-2.697156889645368e-05
-3.455790680099982e-05
-4.465103289880664e-05
-5.773336717575326e-05
-7.427285965207671e-05
-6.185325515018955e-06
-6.364946714069898e-06
-6.900852719127475e-06
-8.013067523436764e-06
-9.966837090079019e-06
-1.308791317043603e-05
-1.777393364149712e-05
-2.450133544667666e-05
-3.382330987267677e-05
-4.635275827224472e-05
-6.27229272966583e-05
-2.67323294917689e-07
-2.546955689622565e-07
-4.116966186034155e-07
-9.643078972832294e-07
-2.187774769307683e-06
-4.428223968838318e-06
-8.121265970170076e-06
-1.380723219537246e-05
-2.213793116367629e-05
-3.386742125401348e-05
-4.981685390849396e-05
-4.598338651131624e-05
-4.712127361239461e-05
-4.947630660826931e-05
-5.314207427089391e-05
-5.821741070410902e-05
-6.479798425176409e-05
-7.296584419264876e-05
-8.277722055509548e-05
-9.424870975709868e-05
-0.0001073423285593847
-0.0001219503599407315
-4.511109035101163e-05
-4.623271380808705e-05
-4.855802901066657e-05
-5.218438395454944e-05
-5.721532564932959e-05
-6.375242842581405e-05
-7.188495230421596e-05
-8.16776099349433e-05
-9.315650252448519e-05
-0.0001062936404615918
-0.0001209909278223415
-4.338579651391436e-05
-4.447464391943019e-05
-4.673991549351963e-05
-5.028632223858051e-05
-5.522666646350179e-05
-6.167417806749201e-05
-6.973243463421141e-05
-7.948310755029798e-05
-9.097144542997537e-05
-0.0001041897681976046
-0.0001190597489699225
-4.084602148420674e-05
-4.188514321376508e-05
-4.405894585246382e-05
-4.748279058809856e-05
-5.22829265708404e-05
-5.858965972198652e-05
-6.652775970110779e-05
-7.620428703676499e-05
-8.769351759863077e-05
-0.0001010190027617821
-0.0001161333563712
-3.754927141519249e-05
-3.852120942547878e-05
-4.057075508148559e-05
-4.382672015982774e-05
-4.843244435960948e-05
-5.454019889835494e-05
-6.230241342646629e-05
-7.185981973915213e-05
-8.33258604886558e-05
-9.676704996339576e-05
-0.0001121795687393605
-3.357153843205372e-05
-3.445842177717843e-05
-3.63496243399148e-05
-3.938954437919493e-05
-4.374149356059939e-05
-4.958382881351603e-05
-5.710246603548396e-05
-6.64797502635558e-05
-7.787859815968552e-05
-9.142110496419431e-05
-0.0001071614143009983
-2.900634898428313e-05
-2.979019260977655e-05
-3.148813902251871e-05
-3.426146711559953e-05
-3.829535547374064e-05
-4.379732893306282e-05
-5.099167416239889e-05
-6.010965322212756e-05
-7.137389224559076e-05
-8.497547252546485e-05
-0.0001010428059941701
-2.396317066837765e-05
-2.462639441546132e-05
-2.609626673556065e-05
-2.85512386293605e-05
-3.21990484604453e-05
-3.72781491034039e-05
-4.405478673075964e-05
-5.281539995268332e-05
-6.385207900370601e-05
-7.743875896704186e-05
-9.379621981630521e-05
-1.856499674734839e-05
-1.909115447463776e-05
-2.029959849394102e-05
-2.238511938579925e-05
-2.55773280500348e-05
-3.014577752445063e-05
-3.640058893544813e-05
-4.468809889034595e-05
-5.537855539148307e-05
-6.884249261514703e-05
-8.54125055512591e-05
-1.294498287502576e-05
-1.331965813624902e-05
-1.423653098950707e-05
-1.590472201853875e-05
-1.857354491349844e-05
-2.254203573398319e-05
-2.816408388660904e-05
-3.58485748520438e-05
-4.605082728779129e-05
-5.925074506689738e-05
-7.591268686048155e-05
-7.242113499011759e-06
-7.453901634665054e-06
-8.054258644000639e-06
-9.263493119953395e-06
-1.134698386297658e-05
-1.462976356197983e-05
-1.950711270343651e-05
-2.64505556809109e-05
-3.600482953277818e-05
-4.876992778014852e-05
-6.536115605285837e-05
-5.064420692083778e-05
-5.181478256742335e-05
-5.422378172226153e-05
-5.79501855361214e-05
-6.307534567197691e-05
-6.967478025254997e-05
-7.780824621183359e-05
-8.750844324503016e-05
-9.876856988070345e-05
-0.0001115292544468159
-0.0001256657493407979
-4.982771325350453e-05
-5.098528493558857e-05
-5.337087393952004e-05
-5.706692663919011e-05
-6.215908777166975e-05
-6.872815120390157e-05
-7.684017132241084e-05
-8.653508024594006e-05
-9.781397718132827e-05
-0.0001106255667474707
-0.0001248526103913655
-4.821202969635951e-05
-4.934336984564802e-05
-5.168160795852755e-05
-5.53160039166205e-05
-6.034066301323192e-05
-6.684681921065952e-05
-7.49130539831164e-05
-8.459377314436879e-05
-9.590599571481886e-05
-0.0001088148330866192
-0.0001232184646254103
-4.583167678395419e-05
-4.692315807927573e-05
-4.918913511141643e-05
-5.272879118421936e-05
-5.764860083659337e-05
-6.405516741512455e-05
-7.204567541834713e-05
-8.169623946459476e-05
-9.304802657850256e-05
-0.0001060913657477607
-0.0001207485403510605
-4.273816551583691e-05
-4.377567701932062e-05
-4.594325386848691e-05
-4.935274560678757e-05
-5.412649974967668e-05
-6.039103739280763e-05
-6.82679484358397e-05
-7.786222404574503e-05
-8.924765149006194e-05
-0.0001024492367277687
-0.0001174231589307249
-3.899953333901601e-05
-3.996852792402391e-05
-4.201033488280826e-05
-4.525171036417307e-05
-4.983381327955756e-05
-5.590707671096967e-05
-6.362285974112297e-05
-7.312200418016321e-05
-8.451958644709723e-05
-9.788547497015522e-05
-0.0001132208877040178
-3.469951003211158e-05
-3.558521234236311e-05
-3.747296722935009e-05
-4.050603871980862e-05
-4.484660066614153e-05
-5.067223975890103e-05
-5.8168795384438e-05
-6.751953650342037e-05
-7.888954109438246e-05
-9.240440393013929e-05
-0.000108122995376228
-2.993616646355671e-05
-3.072395600602582e-05
-3.242913870889516e-05
-3.521232164052655e-05
-3.925799577051661e-05
-4.477317783183113e-05
-5.198198957694825e-05
-6.111602213262745e-05
-7.239883591927777e-05
-8.602308797439478e-05
-0.0001021193277638621
-2.481991076487501e-05
-2.549587497399792e-05
-2.69907591448679e-05
-2.948248128500216e-05
-3.31781068034774e-05
-3.831518874899689e-05
-4.515874523552658e-05
-5.399355143070745e-05
-6.510950020696159e-05
-7.877772893851316e-05
-9.521561821594593e-05
-1.947074009302449e-05
-2.002236799562107e-05
-2.128136500767271e-05
-2.344200555171699e-05
-2.673304764322212e-05
-3.142235087824586e-05
-3.781698813231589e-05
-4.625835888155606e-05
-5.710940214497091e-05
-7.0730655599785e-05
-8.744204618883065e-05
-1.401473463959565e-05
-1.443169552652868e-05
-1.543291412460348e-05
-1.722715619021168e-05
-2.006283515032466e-05
-2.423646284009179e-05
-3.009666063852341e-05
-3.804309681304235e-05
-4.851676776234684e-05
-6.197728633233795e-05
-7.88625488260714e-05
-5.495355306452158e-05
-5.615177379028449e-05
-5.86055966508232e-05
-6.238055892337433e-05
-6.754200606996763e-05
-7.414713559209108e-05
-8.223562235699919e-05
-9.181921088869929e-05
-0.0001028705617754386
-0.0001153118959624318
-0.0001290042778706467
-5.418940504253278e-05
-5.537747016660823e-05
-5.781336230012995e-05
-6.156578143809567e-05
-6.670394631607781e-05
-7.328972553407303e-05
-8.136824736109306e-05
-9.095736936340303e-05
-0.0001020362556874748
-0.0001145335759799843
-0.0001283161569502627
-5.267672772175478e-05
-5.384428362805691e-05
-5.624385560695308e-05
-5.995038142720587e-05
-6.504073429964359e-05
-7.158604608517143e-05
-7.964230818047172e-05
-8.923961980633443e-05
-0.0001003702497776635
-0.0001129759612146205
-0.0001269354038032552
-5.044666840675412e-05
-5.158300275095767e-05
-5.392701979909474e-05
-5.756279125781354e-05
-6.257843598264515e-05
-6.905877412171629e-05
-7.707596918111705e-05
-8.667850430539742e-05
-9.787852885899533e-05
-0.0001106379157470406
-0.0001248537781159847
-4.75456823643023e-05
-4.863963590385156e-05
-5.090777207589959e-05
-5.444591668042648e-05
-5.9356727215993e-05
-6.574286492743379e-05
-7.369779135275479e-05
-8.32944937278457e-05
-9.457198937163983e-05
-0.0001075197820201046
-0.0001220609133371412
-4.40351059274122e-05
-4.507508765020014e-05
-4.724588235989388e-05
-5.065731117244369e-05
-5.542944538035719e-05
-6.168654176456346e-05
-6.954818664970867e-05
-7.911788593074502e-05
-9.046870084672817e-05
-0.00010362585935178
-0.000118546805131845
-3.999042203257075e-05
-4.096455094189941e-05
-4.301561683430093e-05
-4.626919314949501e-05
-5.086509408170923e-05
-5.695238155234799e-05
-6.468114093523496e-05
-7.419116506939928e-05
-8.559682411624011e-05
-9.896771368567943e-05
-0.0001143052545099054
-3.550010655083958e-05
-3.639649255880904e-05
-3.830500464065705e-05
-4.136814114921938e-05
-4.574711359233863e-05
-5.161829413482265e-05
-5.916600221385327e-05
-6.857163919099209e-05
-7.999805033490572e-05
-9.3568257114282e-05
-0.0001093383015540648
-3.066395348032793e-05
-3.147111540612626e-05
-3.32145850690658e-05
-3.605428987296834e-05
-4.017370277861062e-05
-4.577814821590858e-05
-5.308906773270072e-05
-6.233409301877471e-05
-7.373133270703135e-05
-8.746644115748403e-05
-0.0001036616018802832
-2.559081091616572e-05
-2.629821200781337e-05
-2.785551646739348e-05
-3.043986260707696e-05
-3.425697400668278e-05
-3.954176979585339e-05
-4.655464809323574e-05
-5.557310640031706e-05
-6.68765669386154e-05
-8.072227003693864e-05
-9.731055263645084e-05
-2.03957186693284e-05
-2.099438115550423e-05
-2.234698163176779e-05
-2.464692011821381e-05
-2.812125118904995e-05
-3.303404276618978e-05
-3.968525544074259e-05
-4.840461375669491e-05
-5.953775177762517e-05
-7.342166773083056e-05
-9.034676626470558e-05
-5.88214316195656e-05
-6.004236501294173e-05
-6.253229703705072e-05
-6.634476405920965e-05
-7.153089126754385e-05
-7.813170293920725e-05
-8.616929529583522e-05
-9.563726447791225e-05
-0.0001064907251398576
-0.0001186364699353811
-0.0001319240574101305
-5.810480306636441e-05
-5.93180011973851e-05
-6.17946329022413e-05
-6.559110416569383e-05
-7.07620151965764e-05
-7.735250573604052e-05
-8.538937309060991e-05
-9.487135552200525e-05
-0.0001057588890172489
-0.0001179638700186098
-0.0001313402114473244
-5.668577030467693e-05
-5.788332382233182e-05
-6.033295944073739e-05
-6.409675639213761e-05
-6.923619719775293e-05
-7.580459630029095e-05
-8.383812493651245e-05
-9.334582257428636e-05
-0.0001042988455284653
-0.0001166194463786005
-0.0001301704667748703
-5.459269074843628e-05
-5.576637151266995e-05
-5.817458108950125e-05
-6.188774074445216e-05
-6.697748253524016e-05
-7.350923534106677e-05
-8.153315069829806e-05
-9.107374934621632e-05
-0.0001021184472276164
-0.0001146053872298932
-0.0001284113409991476
-5.186784114698379e-05
-5.300901468945712e-05
-5.536040609752416e-05
-5.900323895553169e-05
-6.402234162799116e-05
-7.049900141316476e-05
-7.850183282263064e-05
-8.807601790286733e-05
-9.923094472908405e-05
-0.000111926564518591
-0.0001260591863133829
-4.8567022884201e-05
-4.966664232601231e-05
-5.194479242155883e-05
-5.549567212537184e-05
-6.042004254320374e-05
-6.681850496359905e-05
-7.478241310769564e-05
-8.438273390752494e-05
-9.56567024092102e-05
-0.0001085924340411186
-0.0001231121226929477
-4.475890850860622e-05
-4.580760861885736e-05
-4.79951922568627e-05
-5.143063790600281e-05
-5.623296784248464e-05
-6.252515534959803e-05
-7.042525185213308e-05
-8.003497728488878e-05
-9.142538389121542e-05
-0.0001046195337943048
-0.0001195726610059222
-4.052404415470548e-05
-4.151234607080471e-05
-4.359148736596247e-05
-4.68865816461736e-05
-5.153673255210446e-05
-5.7689824550178e-05
-6.549410952255406e-05
-7.508672893257971e-05
-8.657848614015282e-05
-0.0001000345063232714
-0.0001154510046658079
-3.595343039867776e-05
-3.687205685089042e-05
-3.882490757699563e-05
-4.195406826309161e-05
-4.641994206861284e-05
-5.239722094005816e-05
-6.0067247337436e-05
-6.960676780717756e-05
-8.117203507070962e-05
-9.487750093722626e-05
-0.0001107689528189704
-3.11466298095596e-05
-3.198691786586177e-05
-3.379644375032307e-05
-3.673453269647146e-05
-4.098342822453685e-05
-4.674577017754349e-05
-5.423810744077586e-05
-6.368027540772088e-05
-7.527917731034563e-05
-8.920571661428317e-05
-0.000105564224504699
-2.620939356866113e-05
-2.6963778096511e-05
-2.861470664492863e-05
-3.133842079942993e-05
-3.533882499966742e-05
-4.084680679833399e-05
-4.811531654421454e-05
-5.740983838537365e-05
-6.899232297415434e-05
-8.309673362142082e-05
-9.989488391002775e-05
-6.216877770370366e-05
-6.340776970540854e-05
-6.592582235467173e-05
-6.97661462026798e-05
-7.496768277176857e-05
-8.155767730469039e-05
-8.954336212323534e-05
-9.890313412418147e-05
-0.000109577595296252
-0.0001214610033694111
-0.0001343938665590181
-6.149363137794609e-05
-6.27268783683144e-05
-6.523541916583707e-05
-6.906506610674335e-05
-7.425787754879793e-05
-8.08447266559698e-05
-8.883690288211849e-05
-9.821713310639495e-05
-0.0001089303729340131
-0.0001208749063265433
-0.0001338944936436658
-6.015643863576709e-05
-6.137804239395759e-05
-6.386721695141423e-05
-6.767492782172942e-05
-7.284941650188422e-05
-7.942877121120862e-05
-8.743237685429637e-05
-9.685163575524126e-05
-0.0001076402710687292
-0.0001197047305611347
-0.0001328954401724207
-5.818330789866224e-05
-5.938708711720828e-05
-6.184640091101694e-05
-6.561981626670155e-05
-7.076471940362891e-05
-7.732991366950897e-05
-8.5346872506476e-05
-9.482004040658313e-05
-0.0001057164313927528
-0.0001179550057321832
-0.0001313965808566516
-5.561314893537494e-05
-5.679255472572638e-05
-5.921066325758558e-05
-6.293593148901885e-05
-6.803768651906421e-05
-7.457880347711374e-05
-8.260675132067176e-05
-9.214339161484716e-05
-0.0001031736888039044
-0.0001156337518732462
-0.000129398958079066
-5.249730434159373e-05
-5.364540047677773e-05
-5.601002547757437e-05
-5.967159382503473e-05
-6.471393565385157e-05
-7.121714170336126e-05
-7.924843681346341e-05
-8.885144298940516e-05
-0.0001000338651255267
-0.0001127539253480409
-0.0001269062673591239
-4.889895916292803e-05
-5.000848206045168e-05
-5.230648453584074e-05
-5.588712084120519e-05
-6.085097662712609e-05
-6.729820630210903e-05
-7.53193215548831e-05
-8.498394469737956e-05
-9.632739416496563e-05
-0.0001093352904646977
-0.0001239268356785541
-4.48922625251103e-05
-4.595576981738882e-05
-4.817339977192766e-05
-5.165447904403656e-05
-5.651821216169159e-05
-6.288727555701233e-05
-7.08786649877735e-05
-8.059203289750135e-05
-9.209517179915046e-05
-0.0001054066397002579
-0.0001204760562508787
-4.056110122921866e-05
-4.157120976550998e-05
-4.36945378601785e-05
-4.705660842924055e-05
-5.179664185945276e-05
-5.806180638261904e-05
-6.599832417221376e-05
-7.573955840031576e-05
-8.739047725335514e-05
-0.000101008233969101
-0.000116579193002658
-3.599748484210565e-05
-3.694718944569454e-05
-3.896270786267907e-05
-4.21863270691102e-05
-4.677814705246021e-05
-5.291121435736131e-05
-6.076313627286331e-05
-7.050415360388553e-05
-8.228075872878766e-05
-9.619426887873099e-05
-0.0001122743950304942
-3.129953468224535e-05
-3.218258873523076e-05
-3.407794856256123e-05
-3.714474882466116e-05
-4.156425267590279e-05
-4.753610941190727e-05
-5.527076307973593e-05
-6.49778084015929e-05
-7.684902560094364e-05
-9.103509954177657e-05
-0.0001076156693096842
-6.492852229561336e-05
-6.618129197187147e-05
-6.872035672262463e-05
-7.258046159570013e-05
-7.779059550635573e-05
-8.436680172258857e-05
-9.230430622813014e-05
-0.000101569329775743
-0.0001120909743013408
-0.0001237537224394111
-0.0001363912354067045
-6.428779580106826e-05
-6.553638842182055e-05
-6.806891279280046e-05
-7.192248635485994e-05
-7.712891176164916e-05
-8.370745539485365e-05
-9.165687613567328e-05
-0.0001009470759852871
-0.0001115107515217643
-0.0001232355820672776
-0.0001359576498021672
-6.301856863148791e-05
-6.425867096636196e-05
-6.677781393171656e-05
-7.061782024474042e-05
-7.581608126251297e-05
-8.239827895342701e-05
-9.037022465947408e-05
-9.970919573136915e-05
-0.0001103551243188749
-0.0001222021666083811
-0.000135091365721883
-6.114520128795653e-05
-6.237224658931661e-05
-6.487060202376452e-05
-6.868904751942674e-05
-7.387325759367563e-05
-8.04584566460471e-05
-8.846099541530666e-05
-9.786923893901501e-05
-0.0001086340798529137
-0.0001206595894572736
-0.0001337945418403909
-5.870398725890462e-05
-5.991307454889799e-05
-6.23824774168583e-05
-6.617005917393061e-05
-7.133234433049278e-05
-7.791711785604177e-05
-8.595469362396843e-05
-9.544824581322162e-05
-0.0001063634571175909
-0.0001186179669281897
-0.0001320713748975002
-5.574280449735274e-05
-5.692867012508472e-05
-5.936010409071614e-05
-6.310600473986372e-05
-6.823613195930125e-05
-7.48136870710814e-05
-8.288626160179344e-05
-9.247553974131307e-05
-0.0001035659243075955
-0.000116092520040295
-0.0001299292397420512
-5.232057195955203e-05
-5.347762566531365e-05
-5.58612569668961e-05
-5.955312431764266e-05
-6.463836663618781e-05
-7.11982300095465e-05
-7.930072510638749e-05
-8.898967174488302e-05
-0.0001002721875842834
-0.0001131049776261997
-0.00012738018010716
-4.850645869911673e-05
-4.962889163755525e-05
-5.195424549202016e-05
-5.557838410031848e-05
-6.060366268772448e-05
-6.713169820407529e-05
-7.525380735482098e-05
-8.503941419985566e-05
-9.652233813281516e-05
-0.0001096852059730587
-0.000124442702104
-4.43787976185701e-05
-4.546076365822325e-05
-4.771704828306229e-05
-5.125883529899285e-05
-5.620716204140117e-05
-6.268595916161294e-05
-7.081238534175132e-05
-8.068467254870941e-05
-9.23672097171175e-05
-0.0001058729520425578
-0.0001211437840947925
-4.002367098175327e-05
-4.105953535483693e-05
-4.323610500765831e-05
-4.668062374548515e-05
-5.153384547317951e-05
-5.794349331987553e-05
-6.605464775650298e-05
-7.599715789841858e-05
-8.786958258189319e-05
-0.0001017195418624518
-0.0001175209653381635
-3.553315965994e-05
-3.651780124562287e-05
-3.860473456783354e-05
-4.193759731840337e-05
-4.667741517138927e-05
-5.299664581336872e-05
-6.106980996879934e-05
-7.10606461859693e-05
-8.310503718643215e-05
-9.728932816766939e-05
-0.0001136243154000071
-6.704634497994575e-05
-6.830900870650554e-05
-7.086287249605533e-05
-7.473621708364087e-05
-7.995045357987634e-05
-8.651312898034275e-05
-9.44104100963206e-05
-0.0001035993918669708
-0.0001140006340630128
-0.0001254914553767769
-0.0001379006302262322
-6.643215187059466e-05
-6.769179708923203e-05
-7.024130809775196e-05
-7.411115738137244e-05
-7.932533320855224e-05
-8.589429416026795e-05
-9.380734255333173e-05
-0.0001030247700520167
-0.0001134701724884981
-0.0001250234639790677
-0.0001375152478274176
-6.52153510046041e-05
-6.646883586401513e-05
-6.900937155559187e-05
-7.28717817894725e-05
-7.80851780713771e-05
-8.466581789811626e-05
-9.260926424542457e-05
-0.0001018822124136707
-0.0001124143662150676
-0.0001240908944956378
-0.0001367461484743452
-6.341902227399269e-05
-6.466297388497056e-05
-6.718940221936953e-05
-7.103957548803363e-05
-7.625020984970406e-05
-8.284619696018317e-05
-9.08324600867141e-05
-0.0001001853194649258
-0.0001108437237025753
-0.0001227008763610537
-0.0001355969694076782
-6.107754247163109e-05
-6.230827965375834e-05
-6.481477788459127e-05
-6.864674007650279e-05
-7.385086562366577e-05
-8.046342895593111e-05
-8.850176343456171e-05
-9.795504253408227e-05
-0.0001087746768918477
-0.000120864848025059
-0.0001340739257324796
-5.823625096992318e-05
-5.94497504439784e-05
-6.192970791114609e-05
-6.573610768313801e-05
-7.092786411395486e-05
-7.755525296423731e-05
-8.565098071714226e-05
-9.52202855428268e-05
-0.0001062303336675328
-0.0001185994123161706
-0.0001321867002885907
-5.495093907445824e-05
-5.614285534297491e-05
-5.858888086352495e-05
-6.236094082082403e-05
-6.75321994281309e-05
-7.416936906119952e-05
-8.232335395341859e-05
-9.201860766426091e-05
-0.0001032413928200876
-0.0001159274077103327
-0.000129949586758064
-5.128711977055204e-05
-5.245286507027816e-05
-5.485691256055603e-05
-5.858455497745465e-05
-6.372498985308906e-05
-7.036355591564609e-05
-7.857197473560734e-05
-8.839693936863632e-05
-9.984713901308789e-05
-0.0001128791248145858
-0.0001273828337507174
-4.73190381091549e-05
-4.845392393633382e-05
-5.080754100784451e-05
-5.447969849510625e-05
-5.95771026843989e-05
-6.620559416272371e-05
-7.446004659877469e-05
-8.441220263379958e-05
-9.609640909103876e-05
-0.0001094935683397828
-0.0001245141080030268
-4.312839429100749e-05
-4.422783028226653e-05
-4.652252369950429e-05
-5.012763026856374e-05
-5.516847797072825e-05
-6.177289968313328e-05
-7.006088222771168e-05
-8.013170804196415e-05
-9.204839552592099e-05
-0.0001058196326652909
-0.0001213799582406691
-3.880277090937715e-05
-3.986251067041969e-05
-4.209021071269829e-05
-4.561685160727822e-05
-5.058708599803086e-05
-5.715177723113782e-05
-6.545752093065542e-05
-7.563319122411969e-05
-8.777313196738926e-05
-0.0001019170278717353
-0.0001180271212224479
-6.848117238253568e-05
-6.975020505589921e-05
-7.231344321411931e-05
-7.619480491830761e-05
-8.141059802115417e-05
-8.796266382578495e-05
-9.583110858637706e-05
-0.0001049669523124533
-0.0001152851062842249
-0.000126658200086121
-0.0001389118752932997
-6.788500922275437e-05
-6.915178625896907e-05
-7.171210817415524e-05
-7.559196035713849e-05
-8.081006586256729e-05
-8.737096639676444e-05
-9.525763718827248e-05
-0.0001044239734672191
-0.0001147875559013591
-0.0001262232192775274
-0.0001385580548539762
-6.670384851117662e-05
-6.796599945739101e-05
-7.052023937810024e-05
-7.439666042909529e-05
-7.961878958550887e-05
-8.61965488091206e-05
-9.411864242586025e-05
-0.0001033447242246886
-0.0001137977426580038
-0.0001253569944027549
-0.0001378525423486363
-6.495993090006875e-05
-6.621486929295843e-05
-6.875938850037142e-05
-7.262966964163733e-05
-7.785637716686753e-05
-8.445744892430015e-05
-9.243015663781944e-05
-0.0001017428071832586
-0.0001123264674729419
-0.0001240672497654881
-0.0001367998495696256
-6.268637707393186e-05
-6.393122572631669e-05
-6.6461739899959e-05
-7.032208260377749e-05
-7.555230135870847e-05
-8.218091181640023e-05
-9.021654878752926e-05
-9.963907120261511e-05
-0.0001103904793311395
-0.0001223661853339691
-0.0001354073729845212
-5.992686242018402e-05
-6.115841652406073e-05
-6.3669895984307e-05
-6.751521401469448e-05
-7.27459207765497e-05
-7.940356059611274e-05
-8.751085278023775e-05
-9.706209106839663e-05
-0.000108013083717491
-0.0001202711736145624
-0.0001336861215930223
-5.673512702859832e-05
-5.794986400776952e-05
-6.043652469128855e-05
-6.426037763665801e-05
-6.948642551885921e-05
-7.617153505940454e-05
-8.435511279379531e-05
-9.404871614193847e-05
-0.0001052248704063115
-0.0001178056191652114
-0.0001316516373774638
-5.317428341010158e-05
-5.436842519831166e-05
-5.682382229333992e-05
-6.061849975548039e-05
-6.583264453703071e-05
-7.254052782278085e-05
-8.080066980041049e-05
-9.064461018692777e-05
-0.0001020644855213605
-0.0001149999138253927
-0.0001293250551910265
-4.931588719502953e-05
-5.048551649042404e-05
-5.290274511448425e-05
-5.665951062659813e-05
-6.185264674823213e-05
-6.857563845881978e-05
-7.690830009000042e-05
-8.690468708249576e-05
-9.857935178248982e-05
-0.0001118923974497582
-0.0001267342250044152
-4.523874582241474e-05
-4.637997306095409e-05
-4.875197132442749e-05
-5.246146258737461e-05
-5.762306971109112e-05
-6.435096371091695e-05
-7.274810903434274e-05
-8.289333380268526e-05
-9.482622174223974e-05
-0.000108530209725181
-0.0001239147918494623
-4.102745633451026e-05
-4.213662896439402e-05
-4.445656884137674e-05
-4.810933664189671e-05
-5.322812000760528e-05
-5.994884796439368e-05
-6.839908377429319e-05
-7.868430567314099e-05
-9.087143479538038e-05
-0.000104969897045573
-0.0001209111007893781
-6.920548454850341e-05
-7.047762990963492e-05
-7.304540073361733e-05
-7.693051817764903e-05
-8.214672359351687e-05
-8.869299374563055e-05
-9.654639927550678e-05
-0.0001056549266299737
-0.0001159306781129442
-0.0001272439662455969
-0.0001394189050181962
-6.86184383509815e-05
-6.988870641822121e-05
-7.24542722383481e-05
-7.633886090876142e-05
-8.155854677119675e-05
-8.811490041477096e-05
-9.598772779499887e-05
-0.0001051277303901949
-0.0001154494983974768
-0.0001268253577488207
-0.0001390806872832036
-6.745530386504132e-05
-6.872170677544677e-05
-7.128262307543658e-05
-7.516575992326299e-05
-8.039183330219351e-05
-8.696758258374775e-05
-9.487827611276784e-05
-0.0001040800524409339
-0.000114492503178946
-0.0001259920265788005
-0.0001384065949239231
-6.573790646945928e-05
-6.699824785235681e-05
-6.955161522071449e-05
-7.343162288611099e-05
-7.86658863931327e-05
-8.52688482346529e-05
-9.323394594984098e-05
-0.0001025254866262548
-0.0001130706228401322
-0.0001247519696384385
-0.0001374015438261094
-6.34987452829951e-05
-6.47505468771122e-05
-6.729284268044104e-05
-7.116699648980539e-05
-7.64097003270028e-05
-8.304556636454588e-05
-9.107886865806193e-05
-0.0001004848171431601
-0.0001112007410637923
-0.000123117731597968
-0.0001360734722240212
-6.078067217049292e-05
-6.202113551331637e-05
-6.45481130363752e-05
-6.841244466379286e-05
-7.366195954180629e-05
-8.033380381156957e-05
-8.8445686635602e-05
-9.798643871182183e-05
-0.0001089062330211766
-0.0001211070243123948
-0.0001344339890912062
-5.763641167520733e-05
-5.886242315713662e-05
-6.136909471705031e-05
-6.521831724993743e-05
-7.047096071486356e-05
-7.717892447692875e-05
-8.537584163737754e-05
-9.50668303643181e-05
-0.0001062176021784414
-0.0001187434833218757
-0.0001324991861111841
-5.412788696674807e-05
-5.533607157165388e-05
-5.781678668764359e-05
-6.164435871266639e-05
-6.689439971194207e-05
-7.363558567033648e-05
-8.191979929126843e-05
-9.177100977317871e-05
-0.0001031731444232965
-0.0001160574967314779
-0.0001302905601666131
-5.032531944077103e-05
-5.151214471862787e-05
-5.396076752572515e-05
-5.775910465682655e-05
-6.299896062905811e-05
-6.976755817352845e-05
-7.813712731310731e-05
-8.815287964123343e-05
-9.981954966668858e-05
-0.0001130870211661198
-0.0001278359721603768
-4.630607838988969e-05
-4.746800585396162e-05
-4.987818773353025e-05
-5.363901864276469e-05
-5.885964594694989e-05
-6.564729478362273e-05
-7.409633865964875e-05
-8.42753664661052e-05
-9.621233495839852e-05
-0.0001098782790681701
-0.0001251705446749518
-4.215327166272532e-05
-4.328694810314492e-05
-4.565248255259546e-05
-4.936733375021771e-05
-5.455879631813988e-05
-6.135517796093215e-05
-6.987441199548734e-05
-8.021024746228744e-05
-9.241599228488493e-05
-0.0001064862144533697
-0.0001223373785101209
-2.6569113059474e-05
-3.100328115189986e-05
-3.193242714950285e-05
-3.392118197197414e-05
-3.443378165162299e-05
-3.545019914079369e-05
-3.760379292182731e-05
-4.104147358712793e-05
-4.592747614744422e-05
-5.243622341286065e-05
-3.677068481943359e-05
-3.784462535921625e-05
-4.010636673271525e-05
-4.369352005869198e-05
-4.875820846845381e-05
-5.545873400735497e-05
-6.394821943482605e-05
-7.436018285006198e-05
-3.795408759451906e-05
-3.905656415267832e-05
-4.137180174329751e-05
-4.503258196550996e-05
-5.018476580894248e-05
-5.697839192736961e-05
-6.555591241600801e-05
-7.603756626336923e-05
-8.850373209178527e-05
-0.0001029745744145102
-0.0001344928406546469
-0.0001335146797654743
-0.0001315337125580539
-0.0001285015991537053
-0.0001243484431825978
-0.0001189865819639318
-0.0001123166991361678
-0.0001042370724476069
-9.465678067611179e-05
-8.351347063871363e-05
-7.079570195001907e-05
-0.0001378817565319088
-0.0001370653138842354
-0.0001354150428030094
-0.0001328970626393504
-0.0001294629387685167
-0.0001250529812453729
-0.0001196013305920042
-0.0001130433248729783
-0.0001053256041907702
-9.641920525963938e-05
-8.633546239972763e-05
-0.0001409771507784072
-0.0001403001166615756
-0.0001389342497423519
-0.0001368567417465004
-0.0001340354555810056
-0.0001304316923216655
-0.0001260043056958954
-0.0001207154453970461
-0.0001145381539623292
-0.0001074658724384377
-9.95235941468329e-05
-0.0001437392787876321
-0.0001431798097373168
-0.0001420532516809992
-0.0001403450339810706
-0.0001380350365349579
-0.0001350998388252133
-0.000131515964986518
-0.0001272642694010574
-0.0001223355489236562