/*--------------------------------*- C++ -*----------------------------------*\
  =========                 |
  \\      /  F ield         | OpenFOAM: The Open Source CFD Toolbox
   \\    /   O peration     | Website:  https://openfoam.org
    \\  /    A nd           | Version:  7
     \\/     M anipulation  |
\*---------------------------------------------------------------------------*/
FoamFile
{
    version     2.0;
    format      ascii;
    class       surfaceScalarField;
    location    "0";
    object      phi;
}
// * * * * * * * * * * * * * * * * * * * * * * * * * * * * * * * * * * * * * //

dimensions      [0 3 -1 0 0 0 0];

internalField   nonuniform List<scalar> 
36842
(
1.841283850835026
-1.229961475001126e-05
5.192050874975164e-05
-5.363045918134122e-05
1.841297989793262
-1.240874990095963e-05
5.211645799363396e-05
-5.384666597052508e-05
1.841312382319146
-1.262242661952206e-05
5.249294787290638e-05
-5.426304671831638e-05
1.84132714196366
-1.293131256389982e-05
5.301923414484773e-05
-5.484756583689015e-05
1.841342365902108
-1.332107159157643e-05
5.36494340178443e-05
-5.555230055165337e-05
1.841358128740055
-1.377203190600077e-05
5.432294696561256e-05
-5.631375267967088e-05
1.841374475878524
-1.425886706155493e-05
5.49652429526759e-05
-5.705351401275038e-05
1.841391416568243
-1.475039881636576e-05
5.548919277233975e-05
-5.767948343304852e-05
1.841408916948588
-1.520965599180939e-05
5.579713281886908e-05
-5.808785685701423e-05
1.841426893552395
-1.559434230787983e-05
5.578384753133234e-05
-5.81661088006058e-05
-1.585786924377284e-05
5.534061380987322e-05
1.84144520795531
-5.779714729949887e-05
1.841283741699911
-2.444436450041209e-05
5.275203612293124e-05
-5.450771610376479e-05
1.841297776116562
-2.466532077765876e-05
5.296558353964319e-05
-5.474342863007792e-05
1.841312073433215
-2.509818105522747e-05
5.337688984701123e-05
-5.519845152943728e-05
1.841326752204665
-2.572453215066154e-05
5.395440785096422e-05
-5.583995914091345e-05
1.841341914941808
-2.651603377536923e-05
5.465094547219e-05
-5.6618719881385e-05
1.841357641904935
-2.743369754434259e-05
5.540397118863893e-05
-5.74692680334274e-05
1.841373984346774
-2.842717184137192e-05
5.613626606759676e-05
-5.831040252499736e-05
1.841390957311077
-2.943425006121409e-05
5.675711607722178e-05
-5.904622857855201e-05
1.841408532262264
-3.038087628277395e-05
5.71642614630719e-05
-5.956799187853981e-05
1.841426630025488
-3.11819634499131e-05
5.72468191180065e-05
-5.975696068816205e-05
-3.174335343474184e-05
5.688935849437177e-05
1.841445114734583
-5.948858291533473e-05
1.841283520743644
-3.627616609946926e-05
5.441174822199059e-05
-5.625942010567549e-05
1.841297343256244
-3.66140754261476e-05
5.466103244091645e-05
-5.653478988674249e-05
1.841311447082091
-3.727666257666956e-05
5.514308209799651e-05
-5.706842578487909e-05
1.841325960703003
-3.823695826099562e-05
5.582479949341976e-05
-5.782599383508122e-05
1.841340997278024
-3.945331606303163e-05
5.665644890484608e-05
-5.875574106997084e-05
1.841356648430633
-4.086819255142495e-05
5.757171914413353e-05
-5.978837622473484e-05
1.84137297726852
-4.240688217733892e-05
5.848808723132279e-05
-6.08372143062752e-05
1.84139001068489
-4.397653744583256e-05
5.930771244067038e-05
-6.179884075407927e-05
1.841407731175053
-4.546589409941546e-05
5.991912817902032e-05
-6.255460002537719e-05
1.841426068635542
-4.674619734366217e-05
6.020001341511261e-05
-6.29732394870075e-05
-4.767386437265504e-05
6.002130204281192e-05
1.841444892874691
-6.291502988402547e-05
1.841283182834303
-4.763080526970514e-05
5.689225268515561e-05
-5.887917768784612e-05
1.841296680669089
-4.809275770867324e-05
5.719645896360472e-05
-5.921561097923465e-05
1.841310486786426
-4.899969389992124e-05
5.778733332766255e-05
-5.98704187595445e-05
1.841324744345187
-5.031692401952492e-05
5.862959641942438e-05
-6.080718876688731e-05
1.841339582401531
-5.199062456750035e-05
5.966989193493291e-05
-6.197063931319219e-05
1.841355109741002
-5.394595932518565e-05
6.083645740773135e-05
-6.328602963887641e-05
1.841371407613252
-5.60850428144021e-05
6.203901447321437e-05
-6.465872553920118e-05
1.841388521328241
-5.828518290474915e-05
6.316916077255795e-05
-6.597422976284393e-05
1.841406450871794
-6.039797899563293e-05
6.41016072862044e-05
-6.709906541604244e-05
1.841425140968497
-6.224997694694799e-05
6.469664467090283e-05
-6.78829612940303e-05
-6.364566591333633e-05
6.480422417836103e-05
1.841444471356127
-6.816280981070153e-05
1.841282720881892
-5.833564840593056e-05
6.018071786684244e-05
-6.235548639515616e-05
1.841295773732924
-5.892994398017845e-05
6.056051244280985e-05
-6.27761766054391e-05
1.841309169556297
-6.00984554593322e-05
6.130135192958853e-05
-6.359841317506921e-05
1.841323070644677
-6.179996706353766e-05
6.236533006642744e-05
-6.478337478656935e-05
1.841337627066764
-6.397011896578285e-05
6.369464879236843e-05
-6.627157588670046e-05
1.841352970657539
-6.651867356750799e-05
6.52107169020417e-05
-6.798159285432799e-05
1.841369207473178
-6.932642385053359e-05
6.681333528999509e-05
-6.98087693297375e-05
1.841386408532145
-7.224228211064717e-05
6.838031727798248e-05
-7.162427647498013e-05
1.841404598873865
-7.508128405220284e-05
6.976798951541241e-05
-7.327502557532466e-05
1.841423745279542
-7.762443917158603e-05
7.08130998035017e-05
-7.458504267785435e-05
-7.962151949915066e-05
7.133670097658751e-05
1.841443743426886
-7.535899426613867e-05
1.841282126586307
-6.820831082166004e-05
6.425685543984045e-05
-6.666950916362369e-05
1.841294605221407
-6.894343976697537e-05
6.473470459411601e-05
-6.719984321077534e-05
1.841307468044675
-7.039133663511156e-05
6.56703881435566e-05
-6.824032972017134e-05
1.841320900492789
-7.25058575028469e-05
6.702319412506066e-05
-6.974975130193878e-05
1.841335078512145
-7.521434227442084e-05
6.873043499919831e-05
-7.166423053410673e-05
1.841350162907233
-7.841380857123052e-05
7.070575591225974e-05
-7.389501549681638e-05
1.841366291614904
-8.196648081557727e-05
7.283732411167456e-05
-7.632597422508983e-05
1.84138356953018
-8.569527511781405e-05
7.498632302622796e-05
-7.881124478106268e-05
1.841402055718738
-8.938012660528801e-05
7.698632050079349e-05
-8.117366594007102e-05
1.84142174819921
-9.275633912424324e-05
7.864422212833253e-05
-8.320480212375947e-05
-9.551641262571877e-05
7.974363140053033e-05
1.841442567011555
-8.466755012901429e-05
1.841281391457372
-7.705662866651674e-05
6.909036565464151e-05
-7.179223502059908e-05
1.841293157324543
-7.793997948833975e-05
6.969068950013497e-05
-7.246001629366311e-05
1.841305353523794
-7.968307952835187e-05
7.087018720142169e-05
-7.377464292090963e-05
1.841318192008032
-8.223688374922993e-05
7.258552038078611e-05
-7.569297788987473e-05
1.841331879045839
-8.552332138588328e-05
7.476917505298035e-05
-7.814723317269787e-05
1.841346610235007
-8.943020416567295e-05
7.732672185514158e-05
-8.104151489618478e-05
1.841362562820606
-9.380503726869306e-05
8.013365245571662e-05
-8.42476810660744e-05
1.841379884678702
-9.844840518269439e-05
8.303229188553264e-05
-8.760101927611806e-05
1.84139867950622
-0.0001031079448783231
8.582949343147783e-05
-9.089650207019218e-05
1.841418988125717
-0.0001074743361613176
8.829605380102918e-05
-9.388667561438524e-05
-0.0001111811781460025
9.016899956775266e-05
1.841440766444208
-9.628255204319176e-05
1.841280508106536
-8.468028487129686e-05
7.463798627174905e-05
-7.768116647507781e-05
1.841291414224472
-8.571660070309086e-05
7.538708963292851e-05
-7.851658579940392e-05
1.8413027997196
-8.776563027454579e-05
7.686337172225865e-05
-8.016631556477715e-05
1.841314905570371
-9.077786852613903e-05
7.902150164795744e-05
-8.258636713978045e-05
1.841327972163072
-9.467338321216046e-05
8.178986408324818e-05
-8.570639442950755e-05
1.841342235401882
-9.933525580187905e-05
8.506647793637967e-05
-8.942466465100551e-05
1.84135791945269
-0.0001046013631245334
8.871405768014014e-05
-9.3601782123497e-05
1.841375225138975
-0.0001102551668668335
9.255477812328854e-05
-9.805370209394752e-05
1.841394313114975
-0.000116016601488665
9.636558866787961e-05
-0.0001025449073921436
1.841415281283695
-0.0001215347115598917
9.98752713837538e-05
-0.0001067830641023002
-0.0001263843457313012
0.0001027648071195263
1.84143813663583
-0.0001104169911107398
1.841279471790727
-9.087441026331179e-05
8.084034287644594e-05
-8.427673797786974e-05
1.841289365194953
-9.206404969135157e-05
8.176606342655851e-05
-8.531201814525488e-05
1.841299787481304
-9.442112217072918e-05
8.359543944434012e-05
-8.736223334184706e-05
1.841311010055705
-9.789844428098592e-05
8.628232799878766e-05
-9.038432601977762e-05
1.84132331029052
-0.0001024183473625553
8.975254959357947e-05
-9.430781962800444e-05
1.841336969294588
-0.0001078645416896507
9.389814949147752e-05
-9.902786697120292e-05
1.841352265648979
-0.0001140716331114115
9.857020776138369e-05
-0.0001043962914291991
1.841369463704368
-0.0001208128806054347
0.0001035707857280691
-0.0001102111265964822
1.841388795004875
-0.0001277872821390248
0.0001086449726557248
-0.000116205591882279
1.841410431649571
-0.0001346077937327552
0.0001134744950570095
-0.0001220380568699662
-0.0001407934042823236
0.0001176749410944925
1.841434451125153
-0.0001272853574363356
1.841278282151308
-9.543541126584164e-05
8.761886839181443e-05
-9.149874862960019e-05
1.841287008122464
-9.677251638116134e-05
8.874988484310849e-05
-9.276738876198247e-05
1.841296310159194
-9.942738727850677e-05
9.099065091331449e-05
-9.528642187004536e-05
1.841306490152618
-0.0001033581308909286
9.429600831825024e-05
-9.901631455733225e-05
1.841317864096169
-0.0001084938423097305
9.859168800576674e-05
-0.0001038901360439063
1.841330762203157
-0.0001147248912974116
0.000103766597429145
-0.000109804354233889
1.84134552440149
-0.0001218900717674387
0.0001096628748058492
-0.0001166066337699785
1.841362489302796
-0.0001297610313001716
0.000116064264062743
-0.0001240810139933048
1.841381974493288
-0.0001380249530598125
0.0001226838361461094
-0.0001319313548694637
1.841404246039005
-0.0001462673264476455
0.0001291527664599283
-0.0001397647787274797
-0.000153957860975918
0.0001350127546734696
1.84142947572257
-0.000147077980900834
1.841276945046189
9.487312931507961e-05
-9.816913960164967e-05
-9.924317694601452e-05
1.841284353251581
9.62378863533786e-05
-9.963987118863494e-05
-0.000100778736521389
1.841292379415592
9.894818301856612e-05
-0.0001025662837780534
-0.0001038354499505609
1.841301354441214
0.0001029622847517497
-0.0001069146902335374
-0.0001083807504826945
1.841311633047184
0.0001082093102457099
-0.0001126254850459861
-0.0001143562727585319
1.841323597022665
0.0001145792594928969
-0.0001196019930335079
-0.0001216661325525785
1.841337653441926
0.000121909820634869
-0.0001276953381456954
-0.0001301609727804021
1.841354225381053
0.0001299703817565498
-0.0001366854764168127
-0.0001396178749857308
1.841373732119912
0.0001384442397238674
-0.0001462591047941498
-0.0001497168259945167
1.841396555504488
0.0001469108841476446
-0.0001559861495236182
-0.0001600154448198053
0.0001548314764909134
1.841422989503542
-0.0001652980470510099
-0.0001699252886121047
1.841284061030606
-1.140763192818502e-05
4.910838027748887e-05
1.841298393655492
-1.149788944587726e-05
4.928172309601798e-05
1.841312946868584
-1.167421846329662e-05
4.961395375398056e-05
1.841327817981622
-1.19281479099932e-05
5.00762695213815e-05
1.841343088382217
-1.224674616896422e-05
5.062578008110351e-05
1.841358817733592
-1.261241279567749e-05
5.120600887207372e-05
1.841375037921637
-1.300270577811913e-05
5.174776120497881e-05
1.84139174689679
-1.339029229786539e-05
5.217051050263623e-05
1.84140890269741
-1.37431315279533e-05
5.23844641477922e-05
1.841426418093782
-1.402500671501556e-05
5.229345831483252e-05
-1.419652449666703e-05
5.179878928882743e-05
1.841444156443188
1.841283970773119
-2.266398455219573e-05
4.987888608420209e-05
1.841298217326511
-2.284660581413959e-05
5.006774722917636e-05
1.841312692939141
-2.320357942189225e-05
5.043063891005988e-05
1.841327499383382
-2.371815541099131e-05
5.093797172861539e-05
1.841342722715581
-2.436472207794979e-05
5.154558983173691e-05
1.841358427440639
-2.510834548274958e-05
5.219517947807617e-05
1.841374650335098
-2.5904363676755e-05
5.281503022303018e-05
1.841391394057595
-2.669821493297725e-05
5.332131688109362e-05
1.841408620822186
-2.742571951417042e-05
5.36200854455161e-05
1.84142624657602
-2.801405987134166e-05
5.361011901072738e-05
-2.83837047994278e-05
5.318682161028508e-05
1.841444136293589
1.841283788151856
-3.361531884138428e-05
5.141620106030566e-05
1.841297860352867
-3.389431305798152e-05
5.163653930852997e-05
1.84131217836314
-3.44401635076892e-05
5.206165653959237e-05
1.841326852816735
-3.522824112693689e-05
5.266043222462707e-05
1.841341979092135
-3.622078341927092e-05
5.338623549278047e-05
1.841357631422426
-3.73660944887888e-05
5.417713851838574e-05
1.841373856483827
-3.859778802926049e-05
5.495645077044962e-05
1.841390666553053
-3.98343460688011e-05
5.563377498671831e-05
1.841408032481802
-4.097933167692619e-05
5.610681219994025e-05
1.841425876931126
-4.192264264666413e-05
5.626414741044528e-05
-4.254320427812201e-05
5.598921707416982e-05
1.841444068516083
1.841283509157634
-4.410325521867166e-05
5.371230173523117e-05
1.841297314502441
-4.448412380988344e-05
5.398092554034197e-05
1.841311390285512
-4.523019178553662e-05
5.450157903652562e-05
1.841325860274438
-4.630958730148835e-05
5.524095420130721e-05
1.841340833781089
-4.767325146094391e-05
5.614885391684766e-05
1.84135639972888
-4.925367330809207e-05
5.715808903010658e-05
1.841372619925806
-5.096360938729957e-05
5.818463949225382e-05
1.841389521567407
-5.269515405604767e-05
5.912832781973531e-05
1.841407089170829
-5.431962764804959e-05
5.98743004732947e-05
1.841425256369483
-5.568883056163919e-05
6.029563454745702e-05
-5.663825138668699e-05
6.02573742344511e-05
1.841443898266938
1.841283128289064
-5.396315900441095e-05
5.675360304430579e-05
1.841296568434473
-5.445227099663131e-05
5.708851495205151e-05
1.841310310889995
-5.541177247891937e-05
5.774047766999926e-05
1.841324496610298
-5.680345727189157e-05
5.867348035590886e-05
1.841339253359223
-5.856821055051312e-05
5.983285949642198e-05
1.841354689792837
-6.062412279561595e-05
6.114473331311139e-05
1.841370888381164
-6.286446643379769e-05
6.251560463255147e-05
1.84138789709381
-6.515599279581631e-05
6.383244394010452e-05
1.841405719967945
-6.73381509415096e-05
6.496363924668458e-05
1.841424306948667
-6.922396229214201e-05
6.576125136805629e-05
-7.060337091256985e-05
6.606502904078441e-05
1.841443543740702
1.841282639177038
-6.302338468671793e-05
6.05191742946748e-05
1.841295608932967
-6.362713454692657e-05
6.093981284038804e-05
1.841308919205176
-6.481349095601622e-05
6.176183499002705e-05
1.841322731857048
-6.65391274403469e-05
6.294621307696256e-05
1.841337197446947
-6.873656114692039e-05
6.443319630022901e-05
1.841352449449175
-7.131147138259681e-05
6.614110294580425e-05
1.841368596854807
-7.413967961156211e-05
6.796513227160799e-05
1.84138571493564
-7.706433145891001e-05
6.977658149258644e-05
1.84140383415658
-7.98940188957431e-05
7.142296809803383e-05
1.841422927540023
-8.240277989337506e-05
7.272965694937721e-05
-8.433307764257262e-05
7.350365175311536e-05
1.841442897226941
1.841282035427199
-7.110567339662167e-05
6.497849749109719e-05
1.841294422576567
-7.182942782680811e-05
6.550583407718367e-05
1.841307193568696
-7.325416602994748e-05
6.653987083891133e-05
1.841320534423332
-7.533298035376021e-05
6.803851924734749e-05
1.841334622536735
-7.799219962859487e-05
6.993670075670156e-05
1.841349621240937
-8.112773623051173e-05
7.214428306667686e-05
1.841365672202983
-8.460080157135486e-05
7.454381317981758e-05
1.841382885248223
-8.823359530651942e-05
7.69885111563175e-05
1.841401325395601
-9.180583251807827e-05
7.93011603522849e-05
1.841420997242288
-9.505326218818279e-05
8.127469011753854e-05
-9.766960397402779e-05
8.26753862549045e-05
1.841441827382553
1.841281311672773
-7.802699162723798e-05
7.00889021218713e-05
1.841292997838309
-7.887384948410803e-05
7.074534642472699e-05
1.841305114754391
-8.054411375774954e-05
7.203640387336475e-05
1.841317875204055
-8.298915047517865e-05
7.391722261727115e-05
1.841331487000119
-8.613177796235027e-05
7.631764709969976e-05
1.841346148175575
-8.986148567657869e-05
7.913905259471164e-05
1.841362039409191
-9.402863069361061e-05
8.22506538799223e-05
1.841379313011004
-9.843825053959979e-05
8.548583224614594e-05
1.841398077965948
-0.0001028444561728454
8.863925817337304e-05
1.841418380900485
-0.0001069467688141329
9.146584414310139e-05
-0.0001103901841690619
9.368280899733206e-05
1.841440183479413
1.841280464814929
-8.360305827509001e-05
7.579286496042983e-05
1.841291327574083
-8.45724759415134e-05
7.660193142555727e-05
1.841302669717635
-8.648824864110338e-05
7.819743148220715e-05
1.841314732576592
-8.930213669564733e-05
8.053245594399349e-05
1.841327757292433
-9.293656749775916e-05
8.353262393256935e-05
1.841341981030553
-9.727861729928832e-05
8.709154373320871e-05
1.841357629789371
-0.0001021724838970111
9.10653028185493e-05
1.841374906805385
-0.0001074110753953797
9.526659548444422e-05
1.841393975653261
-0.0001127277359671552
9.945940543585378e-05
1.841414937485197
-0.0001177896480086812
0.0001033555432147436
-0.0001221950608896506
0.0001066147407536418
1.841437802563043
1.841279495397259
-8.76537359686898e-05
8.201541918292698e-05
1.84128941180137
-8.874010660520022e-05
8.300111205068556e-05
1.841299855829575
-9.089131010362561e-05
8.494968483319099e-05
1.841311098145766
-9.406178077142587e-05
8.781333682859112e-05
1.841323415242627
-9.817697968152868e-05
9.151500407256186e-05
1.841337087163964
-0.0001031261045742922
9.594216416988175e-05
1.841352391197873
-0.0001087527229799437
0.0001009390808352154
1.841369590144794
-0.0001148438820847507
0.0001062981245567585
1.841388913741234
-0.0001211187038165917
0.0001117512084007896
1.841410532072281
-0.0001272181211171345
0.00011696290937837
-0.0001326982371900657
0.0001215274671577433
1.841434520536865
1.841278409026629
8.866197458853643e-05
-9.001033758693211e-05
1.841287260597881
8.984786228896012e-05
-9.120165312221101e-05
1.841296685358913
9.219750045019716e-05
-9.356538805850277e-05
1.841306982946861
9.566384073420641e-05
-9.706092413230273e-05
1.841318466117741
0.0001001694147123808
-0.000101620254413409
1.841331460545518
0.0001055982130776292
-0.0001071394852918299
1.841346300038737
0.0001117852506499422
-0.0001134676453660906
1.841363315323093
0.0001185044284710557
-0.0001203932122187048
1.84138281432395
0.0001254558043157769
-0.0001276292683534348
1.841405051956222
0.0001322540922217292
-0.0001347989605449133
0.0001384211125952105
1.841430188082533
-0.0001414239986274879
1.84128424697613
-1.058110721640152e-05
4.528378147551695e-05
1.841298750040693
-1.065471815749037e-05
4.543337717879365e-05
1.841313442796604
-1.079815694502562e-05
4.571935511878911e-05
1.841328407443839
-1.100379644664241e-05
4.611541906944698e-05
1.841343710796011
-1.126006250339972e-05
4.658249079878612e-05
1.841359398873536
-1.155132543742337e-05
4.706925711670558e-05
1.841375491406552
-1.185784195507406e-05
4.751307054817742e-05
1.841391976405731
-1.215581759999257e-05
4.784132936208608e-05
1.841408805075098
-1.241767550212862e-05
4.797347072584813e-05
1.84142588746024
-1.261261942125038e-05
4.78236929052135e-05
-1.270757654041471e-05
4.730448374092732e-05
1.841443089342626
1.84128417336521
-2.101490052879955e-05
4.598058448597908e-05
1.841298606601896
-2.116375614982122e-05
4.614354907821615e-05
1.841313237157095
-2.14539801532962e-05
4.645590737593121e-05
1.841328151177834
-2.187046499051728e-05
4.689062010041499e-05
1.841343419533018
-2.239025397003745e-05
4.740742668474259e-05
1.841359092357067
-2.298228992494349e-05
4.795332043983055e-05
1.841375193430878
-2.360725311234518e-05
4.846336805286495e-05
1.841391714547839
-2.421763169464671e-05
4.886201448783822e-05
1.841408610131147
-2.475819757589034e-05
4.906502476131896e-05
1.841425792503159
-2.516707279173286e-05
4.898220083049409e-05
-2.537756374245664e-05
4.852097439338382e-05
1.841443128338028
1.841284024509562
-3.115228226135969e-05
4.737034353752272e-05
1.841298316377888
-3.137948035678686e-05
4.75603957283966e-05
1.841312820672229
-3.182284870191439e-05
4.79262312086611e-05
1.841327631388864
-3.2460104667752e-05
4.843935573259951e-05
1.841342827497058
-3.325731135326407e-05
4.905718527479278e-05
1.84135846739386
-3.416841670349771e-05
4.972336901891591e-05
1.841374583052286
-3.513489682389816e-05
5.03684366129238e-05
1.841391173981975
-3.60857249952281e-05
5.091093914444414e-05
1.841408201255909
-3.693793161609791e-05
5.125927283953244e-05
1.841425582012228
-3.759804991652139e-05
5.131436868057696e-05
-3.79647346804292e-05
5.097339898922884e-05
1.84144318500158
1.84128379731149
-4.084083889374441e-05
4.944481712311552e-05
1.841297873009538
-4.115059996934178e-05
4.967634761752282e-05
1.841312183416264
-4.175581199256916e-05
5.012413602401019e-05
1.841326834182169
-4.262750248074099e-05
5.07575867061405e-05
1.841341916391684
-4.372140364239385e-05
5.15307371625532e-05
1.84135750091373
-4.497718371525387e-05
5.238233450199914e-05
1.841373632224119
-4.631776541465974e-05
5.323619807029464e-05
1.841390321775336
-4.764902947364998e-05
5.400208169703536e-05
1.841407541137634
-4.88602731987363e-05
5.457728017685968e-05
1.841425215327448
-4.982584109544233e-05
5.484923638730014e-05
-5.0408356375053e-05
5.469937889783674e-05
1.841443216944839
1.841283487550456
-4.992381535373609e-05
5.219029931255957e-05
1.841297267797529
-5.032096801962271e-05
5.247863647182055e-05
1.841311311725804
-5.109804608594004e-05
5.303878399791532e-05
1.841325740281007
-5.222007945053025e-05
5.383750262413194e-05
1.841340660611621
-5.363341049527864e-05
5.482453633476325e-05
1.841356160332055
-5.52644966802518e-05
5.593232641842848e-05
1.841372300960074
-5.701873588748202e-05
5.707594754054175e-05
1.841389110531637
-5.877969217223005e-05
5.815353561899871e-05
1.841406575569728
-6.040920250427479e-05
5.904753104855073e-05
1.841424632812199
-6.174892518864204e-05
5.962709353721787e-05
-6.262392997303752e-05
5.975203685437609e-05
1.84144316137845
1.841283090397752
-5.823985047470615e-05
5.558608192672805e-05
1.841296490719458
-5.872914492990221e-05
5.594766861349866e-05
1.841310189692408
-5.968807238332357e-05
5.665288887004561e-05
1.841324326949959
-6.107658983012261e-05
5.766546638646e-05
1.841339029525429
-6.283292944921824e-05
5.893014034543653e-05
1.841354406092847
-6.487183554781968e-05
6.037187483545163e-05
1.841370540003751
-6.708270175708042e-05
6.189518778398964e-05
1.841387481021286
-6.932806507635569e-05
6.338393737590525e-05
1.841405235847041
-7.14430499137782e-05
6.470199029959857e-05
1.841423757807405
-7.323648792614179e-05
6.569525983732853e-05
-7.449452060370711e-05
6.619562674359189e-05
1.841442936423469
1.841282601103316
-6.562372149524151e-05
5.960253541864163e-05
1.841295531792028
-6.620898153151339e-05
6.00549825143114e-05
1.841308801174975
-6.735801260438458e-05
6.09404285754066e-05
1.84132257061033
-6.902687126868254e-05
6.221936592507622e-05
1.84133699061934
-7.114733243000848e-05
6.383109520871046e-05
1.841352195226634
-7.362441843383729e-05
6.569225931434156e-05
1.841368294640461
-7.633364208898943e-05
6.769534015407207e-05
1.841385366036462
-7.911848430757442e-05
6.970753495494448e-05
1.841403442409032
-8.178881686869982e-05
7.157055532047725e-05
1.841422499774744
-8.412116966628425e-05
7.310200684429446e-05
-8.586189667170151e-05
7.409907843935902e-05
1.841442443459194
1.841282015843234
-7.190832741343911e-05
6.419893499451162e-05
1.841294382760921
-7.259146684646112e-05
6.47609145164815e-05
1.841307132316345
-7.393515429585251e-05
6.586399064190118e-05
1.841320450149198
-7.589296270022182e-05
6.746548175331417e-05
1.841334513533312
-7.839224284797052e-05
6.949917397491827e-05
1.841349486002954
-8.13308159592907e-05
7.187298102908602e-05
1.841365509798237
-8.457312080167844e-05
7.446633782137679e-05
1.841382695703857
-8.794638590900701e-05
7.712782878854786e-05
1.841401110056267
-9.123764002574235e-05
7.967372948058956e-05
1.841420759047701
-9.419264009074234e-05
8.188832364450819e-05
-9.651804818844351e-05
8.35270048017632e-05
1.841441571003912
1.841281332703844
-7.692809896298058e-05
6.932120291633186e-05
1.841293039073506
-7.770804877353729e-05
7.001214420654413e-05
1.841305174507895
-7.924507892689183e-05
7.137192218920046e-05
1.841317950869055
-8.149190603525718e-05
7.335503860872413e-05
1.841331574960236
-8.43738357474424e-05
7.589012629694025e-05
1.841346243698155
-8.778452062110253e-05
7.887651099278725e-05
1.841362136533164
-9.158084192506546e-05
8.218018953951608e-05
1.841379404449711
-9.557750913828748e-05
8.562980275224136e-05
1.841398155056176
-9.954226876594077e-05
8.901342833667059e-05
1.841418433639646
-0.000103192970790644
9.207729122806541e-05
-0.0001061981183976376
9.452774757079349e-05
1.841440200703595
1.841280552754014
-8.052394883493791e-05
7.489978526414462e-05
1.841291502043333
-8.139556967939104e-05
7.5739344154613e-05
1.841302927680786
-8.311654870361107e-05
7.739551756915609e-05
1.841315068939338
-8.564051319126544e-05
7.982068588776532e-05
1.841328164275325
-8.889335806827553e-05
8.29391909934694e-05
1.841342447376846
-9.276802150404663e-05
8.664256399475364e-05
1.841358139865946
-9.711799236003403e-05
9.078374272064637e-05
1.841375439690097
-0.0001017501300536825
9.517092191151323e-05
1.841394504354163
-0.0001064177278351505
9.956200401006777e-05
1.841415428492034
-0.0001108152068667326
0.0001036610081470712
-0.000114576354784967
0.0001071182053516516
1.841438215990848
1.841279681133187
8.084792625290693e-05
-8.254976346753968e-05
1.841289781064319
8.185520811818746e-05
-8.350284622092866e-05
1.841300403716289
8.384654321957896e-05
-8.538824293802761e-05
1.841311816094475
8.677323705086364e-05
-8.81622871746332e-05
1.841324289611919
9.055673861979637e-05
-9.175419898257929e-05
1.841338097405981
9.508229897394735e-05
-9.605990099909288e-05
1.841353507728215
0.0001001910695091819
-0.0001009341328565473
1.841370772092333
0.0001056713202842728
-0.0001061813853673524
1.841390106875124
0.0001112498700450714
-0.00011154657572867
1.841411667344133
0.000116585352571974
-0.0001167069356083954
0.0001212655562855756
1.841435513826006
-0.0001212672797555714
1.841284407448043
-9.833643802288631e-06
4.055124732208126e-05
1.841299056810399
-9.892913861484256e-06
4.067692917431032e-05
1.841313867656055
-1.000805430841803e-05
4.09165641931017e-05
1.841328908473557
-1.01722351526609e-05
4.124683705223697e-05
1.841344232952252
-1.037515039375765e-05
4.163316287479831e-05
1.841359874954023
-1.060298711467467e-05
4.203024288025232e-05
1.841375843531139
-1.083845394640219e-05
4.23829477327331e-05
1.841392118154317
-1.106092449225887e-05
4.262763108660794e-05
1.841408644407842
-1.124676104830907e-05
4.269397864457351e-05
1.841425330502489
-1.13698832410442e-05
4.25074818246461e-05
-1.140264205461259e-05
4.199258653159176e-05
1.841442045042015
1.841284348177993
-1.952410032729051e-05
4.116413326623954e-05
1.841298941669947
-1.964389895632501e-05
4.130104276103225e-05
1.841313703475208
-1.98767577727442e-05
4.156280615997372e-05
1.841328705558354
-2.02091299781004e-05
4.192543228482048e-05
1.841344005115516
-2.062055119773353e-05
4.235327084212832e-05
1.841359639487209
-2.10835515681361e-05
4.279951377381712e-05
1.841375621060536
-2.156367830692569e-05
4.320701955862201e-05
1.841391932317819
-2.201974184611378e-05
4.350957507170956e-05
1.841408521285594
-2.240441869141262e-05
4.363371517494338e-05
1.841425297743704
-2.266534681377906e-05
4.350120673026744e-05
-2.274683788333488e-05
4.303226569154165e-05
1.841442130648602
1.841284228379337
-2.892698600149211e-05
4.238612016799611e-05
1.841298708811109
-2.910969013214526e-05
4.254575562408022e-05
1.841313371103013
-2.946514723099022e-05
4.285232920170026e-05
1.84132829413717
-2.997332880738655e-05
4.328052090822117e-05
1.841343542115098
-3.060392213647502e-05
4.379257876524171e-05
1.841359159360465
-3.131613361027159e-05
4.433870612783374e-05
1.84137516499699
-3.205863740163281e-05
4.485775961171625e-05
1.841391547640981
-3.276984375098025e-05
4.52783976025252e-05
1.841408260357468
-3.337869161648074e-05
4.552082978868858e-05
1.841425216252667
-3.380618290329459e-05
4.549931006418206e-05
-3.396786080855904e-05
4.512548003042447e-05
1.841442285194894
1.841284045675195
-3.789574894760593e-05
4.420917504285954e-05
1.841298353354006
-3.814457329553989e-05
4.44035524792028e-05
1.841312862921427
-3.86292572094539e-05
4.477867905466589e-05
1.841327663543822
-3.932366410672845e-05
4.530730007954492e-05
1.841342829903624
-4.018813182902292e-05
4.594858753629658e-05
1.841358416856693
-4.116909289124487e-05
4.664834115937291e-05
1.841374453790635
-4.219885047533725e-05
4.733947766766278e-05
1.841390938793097
-4.319574792568316e-05
4.794298396402242e-05
1.841407832866182
-4.406501683963322e-05
4.836953282925877e-05
1.841425054574749
-4.470061422498045e-05
4.852195959853851e-05
-4.498834957189501e-05
4.829876842641012e-05
1.84144247567442
1.841283796850846
-4.628114547653704e-05
4.662011522793339e-05
1.841297868670111
-4.659972304921226e-05
4.686196753801842e-05
1.841312168514563
-4.722118102542445e-05
4.733086391676494e-05
1.841326799076128
-4.811380710649593e-05
4.799708451755644e-05
1.841341848942577
-4.922931230531092e-05
4.881585095972706e-05
1.841357387099123
-5.050217496680528e-05
4.972725254503973e-05
1.841373456893209
-5.184911722231426e-05
5.065642071602155e-05
1.841390069524209
-5.316901885030832e-05
5.151417608556825e-05
1.841407197268794
-5.434364100384105e-05
5.219841108785563e-05
1.841424766839431
-5.523957844194363e-05
5.259648757281671e-05
-5.571186479148528e-05
5.258890785597726e-05
1.841442653484037
1.841283478273269
-5.393138444112707e-05
4.959931786485187e-05
1.841297247212097
-5.432321254737016e-05
4.99022196580015e-05
1.841311275888458
-5.508881105733427e-05
5.04918430029494e-05
1.841325683570915
-5.619160319709972e-05
5.133558048444556e-05
1.841340576079887
-5.757565518173974e-05
5.238397461463776e-05
1.841356040156853