/*--------------------------------*- C++ -*----------------------------------*\
  =========                 |
  \\      /  F ield         | OpenFOAM: The Open Source CFD Toolbox
   \\    /   O peration     | Website:  https://openfoam.org
    \\  /    A nd           | Version:  7
     \\/     M anipulation  |
\*---------------------------------------------------------------------------*/
FoamFile
{
    version     2.0;
    format      ascii;
    class       volScalarField;
    location    "0";
    object      Phi;
}
// * * * * * * * * * * * * * * * * * * * * * * * * * * * * * * * * * * * * * //

dimensions      [0 2 -1 0 0 0 0];

internalField   nonuniform List<scalar> 
12683
(
57.33923774476609
56.00589426657518
54.67254054982833
53.33917641090758
52.00580158396836
50.67241573279787
49.3390184671585
48.00560936393612
46.67218799331773
45.33875395001014
44.00530688916184
57.33924665138367
56.00590325222166
54.67254969020622
53.3391857749615
52.00581123026159
50.67242570564856
49.33902879254499
48.0056200452594
46.67219900720655
45.33876524246492
44.00531837244646
57.3392643524752
56.00592111331601
54.67256786475113
53.33920440307099
52.00583043152742
50.67244557142953
49.33904937773839
48.00564135971636
46.67222100715144
45.33878782250743
44.00534135901273
57.33929062142306
56.00594762695684
54.67259485819645
53.33923209190282
52.00585900117009
50.67247516563794
49.33908008617032
48.00567320479519
46.67225393072992
45.33882167320206
44.00537588146624
57.33932511269584
56.0059824527469
54.67263034073341
53.3392685282961
52.0058966495534
50.67251422995331
49.33912069947718
48.00571541130695
46.67229766719748
45.33886675077157
44.00542196970708
57.33936735575158
56.0060251261546
54.67267386030461
53.33931327999639
52.00594297274299
50.67256239864798
49.33917090137031
48.00576772468366
46.67235203640317
45.33892296157235
44.00547962666947
57.33941674797666
56.00607505071442
54.67272483334148
53.33936578423803
52.00599743830118
50.67261918106107
49.33923025640814
48.00582977988287
46.67241675994313
45.33899012995585
44.00554879372689
57.33947254760432
56.00613149000992
54.67278253488183
53.33942533508488
52.00605936898219
50.67268394086409
49.33929818419375
48.00590107010731
46.67249142431701
45.33906795619927
44.0056293042352
57.33953386781061
56.00619356065182
54.67284608930374
53.33949107078278
52.00612792557003
50.6727558732907
49.33937393000842
48.00598091005573
46.67257543633878
45.33915596409386
44.00572082393384
57.33959967341804
56.00626022772227
54.67291446321979
53.33956196275968
52.00620209058019
50.67283398209675
49.33945653360481
48.00606839524512
46.67266797195688
45.33925343870312
44.00582277777831
57.3396687818193
56.00633030437207
54.6729864623623
53.33963680830274
52.00628065508668
50.67291705874216
49.33954479882919
48.00616236012986
46.67276792106082
45.33935935642226
44.00593426450523
57.33919741365661
56.00585378325514
54.67249977405633
53.3391352263239
52.00575990985444
50.6723735355087
49.33897577094299
48.00556626072388
46.67214465090206
45.33871061791428
44.00526390136362
57.3392056743556
56.00586210931301
54.67250822780073
53.33914386394826
52.00576877818787
50.67238266863522
49.33898518669545
48.00557595714245
46.67215460282488
45.33872077395364
44.00527418160549
57.33922208620649
56.00587865340687
54.67252503039272
53.33916103916425
52.0057864216073
50.67240085054057
49.33900394502778
48.00559529033259
46.67217446282866
45.33874105999701
44.00529473532276
57.33924642833393
56.00590319756461
54.67254996982147
53.33918654926988
52.00581265045046
50.67242790874693
49.33903189515015
48.00562413589353
46.67220413751711
45.33877141777272
44.00532554247068
57.33927836517392
56.00593541020598
54.67258272271896
53.33922008379863
52.00584717246014
50.67246357520001
49.33906879983281
48.00566229445336
46.67224347241991
45.33881174416726
44.00536655637686
57.33931744194423
56.00597484116084
54.67262284848525
53.33926121733666
52.00588958392294
50.67250747542686
49.33911432237747
48.00570947637916
46.67229223452921
45.33886187186409
44.00541768295579
57.33936307956762
56.0060209159824
54.67266978239248
53.33930940084274
52.00593935867412
50.67255911476821
49.33916800973167
48.00576528158471
46.67235008881876
45.33892154284263
44.00547875173615
57.33941456988283
56.00607293039565
54.67272282851272
53.33936395231127
52.00599583578419
50.67261786243927
49.33922927238108
48.00582917487787
46.67241656890438
45.33899037451525
44.0055494780011
57.33947107218712
56.00613004594183
54.6727811535606
53.339424047903
52.00605820707168
50.67268293454958
49.33929736207918
48.00590045774895
46.67249104247609
45.33906781872716
44.00562941572066
57.33953161233277
56.00619128807958
54.67284378298203
53.33948871496751
52.00612550596539
50.67275337768623
49.33937134905027
48.00597823818286
46.67257267290559
45.33915311467916
44.00571790179924
57.33959508572778
56.00625554815678
54.67290960082727
53.33955682867083
52.00619659964033
50.67282805521025
49.33945010102209
48.00606140099404
46.67266037955318
45.33924523814618
44.00581399362617
57.33915926696835
56.00581550191666
54.67246123464582
53.33909632779311
52.00572058447171
50.67233375941253
49.33893557402135
48.00552573541661
46.67210395939866
45.3386699971029
44.00522366480409
57.33916692914944
56.00582321740223
54.67246905400085
53.33910429605951
52.00572873831005
50.67234212416545
49.33894416073448
48.00553453790523
46.67211295150851
45.33867913037905
44.00523286684227
57.33918214683603
56.00583854288082
54.67248458964165
53.33912013329279
52.00574495194223
50.67235876651332
49.33896125564191
48.00555207481094
46.67213087985847
45.33869735481107
44.00525124369877
57.33920470538526
56.0058612659528
54.67250763377347
53.33914363888582
52.00576903482286
50.67238350915991
49.33898669815341
48.00557820585317
46.67215762801585
45.33872458098516
44.00527873540319
57.33923427978584
56.00589106466312
54.67253787074077
53.33917450707727
52.00580069514964
50.67241607884467
49.33902023860422
48.00561271032279
46.67219300959299
45.33876066176664
44.00531523800608
57.33927043151419
56.00592750398479
54.67257487277413
53.33921232161757
52.00583953313654
50.67245609796296
49.33906152803365
48.00565527492748
46.67223675418792
45.33880537650557
44.00536058636916
57.33931260519903
56.00597003198629
54.67261809517138
53.33925654949296
52.00588503284408
50.67250307411973
49.3391101051625
48.00570547800908
46.67228848881027
45.33885840982441
44.00541453067719
57.33936012582493
56.0060179764212
54.67266687166328
53.3393065344687
52.00593655332618
50.67255638835377
49.33916538124816
48.00576277070461
46.67234771519491
45.33891932515417
44.0054767065334
57.33941219737238
56.00607054265581
54.67272041091293
53.3393614914417
52.00599332012273
50.67261528308257
49.33922662385288
48.00582645601853
46.67241378383079
45.33898753361769
44.00554659891312
57.3394679039268
56.00612681400146
54.67277779528042
53.33942050282193
52.00605441841758
50.67267885118371
49.33929294101427
48.00589566731824
46.67248586616335
45.33906225956206
44.00562350099885
57.33952621437251
56.0061857556209
54.67283798312604
53.33948251836597
52.00611878946998
50.67274602802687
49.33936326783632
48.00596934844692
46.67256292727661
45.33914250505669
44.00570647008335
57.33912409117381
56.00578020991833
54.67242572050391
53.33906050599436
52.00568439985832
50.67229719668601
49.3388986665469
48.00548857295541
46.67206669429194
45.33863284834145
44.00518691935689
57.33913121208828
56.0057873737525
54.67243296771565
53.33906787209568
52.00569191289825
50.67230487471117
49.33890651508251
48.0054965825904
46.6720748384982
45.33864108170519
44.00519517644251
57.33914535022988
56.00580159864485
54.67244736122991
53.33908250629325
52.00570684502151
50.67232014211059
49.33892213015991
48.00551252792071
46.6720910623876
45.33865749454255
44.00521164829063
57.33916629735768
56.00582267807563
54.67246869806067
53.33910421111757
52.00572900648238
50.6723428193108
49.33894534503526
48.00553625780756
46.67211523316428
45.33868197488189
44.00523624570707
57.33919373910691
56.00585030000802
54.67249667097106
53.33913268687434
52.00575810823302
50.67237263141254
49.33897590282353
48.00556753748709
46.67214714231441
45.33871434429219
44.00526882347745
57.33922725303984
56.00588404463506
54.67253086561939
53.33916752790707
52.00579375704538
50.67240920195304
49.339013448736
48.0056060391904
46.67218649460617
45.33875434536623
44.00530916655195
57.33926630680098
56.0059233821338
54.67257075751705
53.33920821837835
52.0058354497612
50.67245204531116
49.33905752038935
48.00565133019175
46.67223289382534
45.33880162522981
44.0053569715716
57.33931025700936
56.00596767106797
54.67261570945627
53.33925412824627
52.00588256736067
50.67250055844887
49.33910753686074
48.00570285890904
46.67228582578004
45.33885571547419
44.00541182394931
57.33935834965226
56.00601615822236
54.67266497022338
53.33930451029564
52.00593436975677
50.67255401293563
49.33916278745564
48.00575994001103
46.67234463947128
45.33891600929326
44.0054731711092
57.33940972284361
56.00606798076091
54.67271767554802
53.33935849925342
52.00598999243887
50.67261154847776
49.33922242149983
48.00582173990569
46.67240852782095
45.3389817371718
44.00554029310718
57.33946341285837
56.00612217166459
54.67277285232907
53.33941511415505
52.00604844628909
50.67267216945535
49.33928544084483
48.00588726447491
46.67247650996684
45.33905194322031
44.00561227273158
57.33909259154418
56.00574861266085
54.67239393710137
53.33902846604057
52.00565205981217
50.67226454819379
49.33886574407857
48.00545546042056
46.67203353021925
45.33859982913683
44.00515430011557
57.33909923637761
56.00575529169249
54.67240068232159
53.33903530501881
52.00565901348252
50.67227162866029
49.33887295248697
48.00546278497406
46.6720409444516
45.33860729058925
44.00516174959328
57.33911242529725
56.00576854970968
54.67241407415276
53.3390488866029
52.00567282757194
50.67228570043707
49.33888728529306
48.00547735630828
46.67205570245733
45.33862215132847
44.00517659546239
57.33913195630207
56.00578818603039
54.67243391462247
53.33906901705411
52.00569331427599
50.67230658354578
49.33890857240529
48.00549901638252
46.67207766040218
45.33864428371684
44.00519872791375
57.3391575252674
56.00581389830108
54.67245990503213
53.33909540342475
52.00572018877737
50.67233400399315
49.33893655363958
48.00552752201102
46.67210659533437
45.33867348809203
44.0052279731651
57.33918872499829
56.00584528130371
54.67249164427705
53.33912765116152
52.00575306592225
50.67236758933977
49.33897087304034
48.00556253785071
46.67214219682185
45.33870948311684
44.00526408267486
57.33922504462666
56.00588182603132
54.67252862728334
53.33916526159856
52.00579145648447
50.67240686348182
49.33901107197414
48.00560362766596
46.67218405633245
45.33875189332294
44.00530671901683
57.33926586989752
56.00592291958628
54.67257024413387
53.339207629935
52.0058347636347
50.6724512412811
49.33905658163609
48.00565024449635
46.67223165494292
45.33880023436379
44.0053554388267
57.33931048499049
56.00596784656469
54.6726157805784
53.3392540444349
52.00588228040172
50.67250002387826
49.33910671584297
48.00570172062096
46.6722843502619
45.33885389681666
44.00540967357377
57.33935807659395
56.00601579266979
54.67266442071944
53.33930368771067
52.0059331890718
50.67255239572795
49.33916066524299
48.00575725852755
46.67234136382767
45.33891212980848
44.00546870939727
57.33940774096959
56.00606585132713
54.67271525271752
53.33935564103651
52.00598656360277
50.67260742458328
49.33921749433132
48.00581592443736
46.67240177067659
45.33897402627464
44.00553166787915
57.33906538349937
56.00572132514674
54.67236649845162
53.3390008200855
52.00562417333231
50.67223641796336
49.33883740327334
48.0054269841015
46.67200503954114
45.33857149387972
44.0051263391135
57.339071623639
56.00572759237938
54.67237281788491
53.3390072128636
52.00563065468
50.67224299528039
49.33884407432733
48.00543373539104
46.67201184492683
45.33857831360458
44.00513311935187
57.3390840059028
56.00574002937228
54.67238536039299
53.33901990379794
52.00564352518125
50.67225606091314
49.33885733145732
48.00544715788702
46.6720253813812
45.33859188531693
44.00514661935772
57.33910233404762
56.00575844090016
54.67240393284383
53.33903870303263
52.00566259958224
50.67227543569262
49.33887700320526
48.00546708956583
46.67204549805624
45.33861207099162
44.00516671534535
57.33912631330461
56.00578253355157
54.67242824463131
53.33906332438522
52.00568759797172
50.67230084808309
49.33890282875913
48.00549328287109
46.6720719632554
45.33863865730789
44.0051932145965
57.33915555024723
56.00581191539744
54.67245790694898
53.33909338403949
52.00571814372177
50.67233193122236
49.33893445397624
48.00552539964497
46.67210445825039
45.33867134839045
44.00522584723324
57.33918955319189
56.0058460961334
54.67249243242029
53.33912839941866
52.00575376137542
50.67236821962021
49.33897142672546
48.00556300499766
46.67214256962551
45.33870975665597
44.00526425568447
57.33922773359922
56.00588448817381
54.67253123558054
53.33916778875839
52.00579387502714
50.6724091460863
49.33901319213908
48.00560556071278
46.672185780739
45.33875339232463
44.00530798235288
57.33926940902415
56.00592640925988
54.67257363480239
53.33921087201102
52.00583780787513
50.6724540396165
49.33905908854954
48.00565241900034
46.67223346313116
45.33880165242199
44.00535645627487
57.3393138082081
56.00597108719774
54.67261885632217
53.3392568737987
52.00588478373741
50.67250212511292
49.33910834507233
48.0057028176392
46.67228486898762
45.33885381042144
44.00540897993413
57.33936007891047
56.00601766735164
54.67266604104934
53.33930492918041
52.00593393140299
50.67255252593366
49.33916008196724
48.00575587778066
46.67233912606201
45.3389090080464
44.00546471783066
57.33904298640319
56.0056988659912
54.67234392155161
53.33897808240454
52.00560125054153
50.67221331013749
49.33881414003518
48.00540362897769
46.67198169324616
45.33854829620979
44.00510346911806
57.3390488979276
56.0057047990507
54.67234989588049
53.33898411415193
52.00560735052571
50.67221948217177
49.33882037937393
48.00540992094842
46.67198801215275
45.33855460460816
44.00510971757546
57.33906062533828
56.00571656995988
54.6723617502082
53.33899608469113
52.00561945946523
50.6722317377542
49.33883277278258
48.00542242355471
46.67200057329332
45.33856715009499
44.00512214916488
57.33907797737752
56.00573398826122
54.67237929572529
53.33901380779837
52.00563739477987
50.67224989913998
49.3388511486708
48.00544097277557
46.67201922167038
45.33858578810997
44.00514063103822
57.33910066731774
56.0057567682878
54.67240224896116
53.33903700347683
52.00566088141608
50.67227369790655
49.33887524714829
48.00546531932745
46.67204372077654
45.33861029707187
44.00516495852784
57.33912831346487
56.00578452950341
54.67243023180116
53.33906529749837
52.0056895507733
50.6723027731423
49.33890471737885
48.00549512511935
46.67207374812705
45.33864037301336
44.00519484896198
57.3391604403368
56.00581679747168
54.67246277204067
53.33909822134452
52.00572293984688
50.67233666962687
49.33893911466243
48.00552995914039
46.67210888990721
45.33867562300337
44.00522993394797
57.3391964809227
56.00585300586907
54.67249930490794
53.33913521300216
52.00576049107131
50.67237483651551
49.33897789778401
48.00556929333829
46.67214863530144
45.33871555791934
44.00526975066407
57.33923578049006
56.00589250002179
54.67253917606208
53.33917561915673
52.00580155345046
50.67241662716331
49.33902042731323
48.00561249921562
46.67219237126404
45.33875958534531
44.00531373293285
57.33927760243607
56.00593454248168
54.67258164661656
53.33921869938477
52.00584538564133
50.67246130082827
49.33906596567196
48.00565884603747
46.672239378693
45.33880700361141
44.00536120312386
57.33932113666824
56.0059783211493
54.67262590074256
53.33926363296786
52.00589116169984
50.67250802706518
49.33911367989457
48.00570750169351
46.67228883116557
45.33885699823744
44.00541136623171
57.33902581933379
56.00568165339681
54.67232662276154
53.33896066637455
52.00558370044988
50.67219562768814
49.33879634932152
48.00538577972545
46.6719638632225
45.33853059256198
44.00508602839825
57.33903148173352
56.00568733324599
54.67233233585096
53.33896642520026
52.00558951262682
50.67220149444972
49.33880226415246
48.00539172719011
46.67196981806335
45.33853651915491
44.00509188065565
57.33904271279299
56.00569859955368
54.67234366935775
53.33897785130515
52.00560104701736
50.67221314010711
49.33881400861542
48.00540354019952
46.67198164973838
45.33854829887308
44.00510351682228
57.33905932522085
56.00571526567938
54.67236043798436
53.33899476150462
52.00561812342508
50.67223038844698
49.33883141159224
48.00542105393923
46.67199920100057
45.33856578329768
44.00512079849263
57.3390810386531
56.00573705211754
54.67238236400694
53.33901688090254
52.00564047099539
50.67225297406338
49.33885421472751
48.00544401887421
46.67202223301769
45.33858874621055
44.00514351389754
57.3391074806219
56.00576358732965
54.6724090778368
53.3390438430547
52.00566772786327
50.67228054138737
49.33888207075769
48.00547209832253
46.6720504221677
45.33861687962799
44.00517137323608
57.33913818830137
56.00579440931602
54.67244011924747
53.33907519068666
52.00569944120917
50.67231264394461
49.33891454185822
48.00550486581129
46.67208335636396
45.33864978910394
44.005204003022
57.339172611388
56.00582896829361
54.67247493964973
53.33911037737211
52.00573506815658
50.67234874430453
49.33895109850108
48.00554180273357
46.67212053144686
45.33868698884851
44.00524093998742
57.33921011652203
56.00586663089812
54.67251290585665
53.33914877064618
52.00577397802655
50.67238821528245
49.33899111943182
48.00558229695961
46.67216134833425
45.3387278973814
44.0052816252758
57.33924999367359
56.00590668634984
54.67255330580829
53.33918965706846
52.00581545652052
50.67243034303016
49.33903389347098
48.00562564317845
46.67220511177207
45.33877183461699
44.00532539986209
57.33929146489569
56.00594835500488
54.67259535671659
53.33923224975212
52.00585871241933
50.67247433268898
49.33907862390961
48.00567104583877
46.6722510316534
45.33881802144256
44.00537150233824
57.3390141983631
56.00567000261094
54.67231491561535
53.33894888280454
52.00557182996143
50.67218367223751
49.33878432589216
48.00537372247664
46.67195182506769
45.33851864602052
44.00507426556118
57.33901969347518
56.00567551249141
54.67232045347036
53.33895445874213
52.00557744951213
50.67218933496925
49.33879002416649
48.00537944040476
46.67195753773489
45.33852431905534
44.00507985512768
57.33903059128076
56.00568644013384
54.67233143768013
53.3389655200876
52.00558859945325
50.67220057309371
49.33880133570177
48.00539079412183
46.67196888438088
45.33853559046836
44.00509096419204
57.33904670724299
56.00570260155941
54.67234768541915
53.33898188583495
52.00560510136076
50.67221721164231
49.33881808997011
48.00540761862293
46.67198570667207
45.33855230976605
44.00510745123307
57.3390677654012
56.00572372154097
54.67236892298589
53.33900328471163
52.00562668744754
50.67223898754842
49.33884003004432
48.00542966470505
46.67200776483843
45.33857424837965
44.00512910062813
57.33909339964443
56.00574943475702
54.67239478672015
53.33902935574814
52.00565300068271
50.67226554922677
49.33886681156508
48.00545659727304
46.67203473529701
45.33860109661791
44.005155618984
57.33912315582683
56.00577928775618
54.67242482466837
53.33905964950166
52.00568359544121
50.67229645653134
49.33889800191039
48.00548799365043
46.67206620806878
45.3386324601956
44.00518663082974
57.33915649505097
56.00581274206586
54.67245849934572
53.33909363030521
52.00571793908263
50.67233118152102
49.33893308002612
48.00552334238255
46.67210168449933
45.33866785686417
44.00522167420457
57.33919279848445
56.0058491788222
54.67249519199384
53.3391306799713
52.00575541492613
50.67236911054304
49.3389714374742
48.00556204313292
46.67214057592521
45.33870671381829
44.00526019683453
57.33923137408514
56.00588790530976
54.67253420874997
53.33917010340604
52.00579532712793
50.67240954819945
49.3390123813269
48.00560340836683
46.67218220404167
45.33874836668898
44.00530155375174
57.33927146558334
56.00592816377696
54.67257478912652
53.33921113658097
52.00583690797099
50.67245172377995
49.33905513957352
48.00564666757581
46.67222580381326
45.33879206104707
44.00534500735081
57.3390083349241
56.0056641244348
54.67230900960986
53.33894293913697
52.00556584360876
50.67217764443103
49.3387782654055
48.00536764669557
46.67194576077062
45.33851262979174
44.00506834375843
57.33901374604407
56.00566954899608
54.67231445954027
53.33894842336527
52.00557136663916
50.67218320501556
49.33878385536136
48.00537324992423
46.6719513525438
45.33851817637589
44.00507380244936
57.33902447654314
56.0056803066543
54.67232526850682
53.33895930182409
52.00558232396938
50.67219423914324
49.33879495039452
48.00538437418418
46.67196245712345
45.33852919436805
44.00508464899069
57.33904034329516
56.00569621479691
54.6723412549598
53.33897539464294
52.00559853811705
50.6722105725355
49.33881138035527
48.00540085447728
46.67197891575683
45.33854553238665
44.00510074047971
57.33906107258995
56.00571700038774
54.6723621472667
53.3389964324286
52.00561974290989
50.67223194339454
49.33883288915263
48.00542244191674
46.67200048838864
45.33856696090916
44.00512185962986
57.33908630155722
56.00574230127991
54.67238758480547
53.33902205703512
52.00564558383768
50.67225800225385
49.33885913403634
48.00544880239482
46.67202685169375
45.33859316967963
44.00514771159655
57.33911558046427
56.00577166837361
54.67241711984552
53.33905182303642
52.0056756189941
50.67228831228079
49.33888968517075
48.00547951536327
46.67205759703109
45.33862376484038
44.00517792033349
57.33914837619723
56.0058045689367
54.67245022054908
53.33908520025552
52.0057093209895
50.67232235044212
49.33892402594181
48.00551407319729
46.67209222881459
45.33865826630225
44.00521202500439
57.33918407727064
56.00584039144328
54.67248627546934
53.33912157775605
52.00574608027673
50.67235951001659
49.33896155452625
48.00555188171658
46.67213016391559
45.3386961060018
44.00524947712154
57.33922200071706
56.00587845229467
54.67252459993467
53.33916026972307
52.00578521036469
50.67239910498424
49.33900158731298
48.00559226251541
46.67217073280865
45.33873662781127
44.00528963922052
57.33926140117792
56.00591800476024
54.6725644446876
53.33920052364595
52.00582595538958
50.67244037683149
49.33904336479188
48.00563445779808
46.67221318323858
45.33877908995574
44.00533178599227
57.33940729901958
57.33936551093574
56.00602296039359
54.67267105635741
57.33933369577995
56.0059907996498
54.67263821603239
53.33927569882649
52.00590288735221
50.67251931726297
57.33931226400032
56.00596914282453
54.67261611713572
53.33925295725277
52.00587932802907
50.67249480071077
49.3390988696888
48.00569097480094
57.33930148244735
56.00595825040595
54.67260500707987
53.33924153115543
52.00586750046175
50.67248250426749
49.33908606049613
48.00567763840402
46.67225668719477
45.33882267082391
42.67184656615973
42.67185811694899
42.67188126417244
42.67191609186352
42.67196270722555
42.6720212160749
42.67209168699144
42.67217410184372
42.67226829036045
42.67237384708265
42.67249003072681
42.67180433980131
42.67181463463426
42.67183523743181
42.67186616786359
42.67190743849567
42.67195903323973
42.672020876735
42.67209279341255
42.67217445524398
42.67226531796221
42.67236454708366
42.67176487596979
42.6717740497699
42.67179238559417
42.67181985416727
42.67185639700791
42.67190190826941
42.67195620955158
42.67201901718574
42.67208990185189
42.6721682411434
42.67225316696797
42.67172888674026
42.67173708183491
42.67175344177018
42.67177790125317
42.67181035026488
42.67185061927966
42.67189845921626
42.67195351610825
42.67201530085658
42.67208315507979
42.67215621506053
42.67169697909609
42.67170434069492
42.67171902037256
42.67174092721017
42.67176991511245
42.67180577112759
42.671848199946
42.67189680485547
42.67195106577557
42.67201031551944
42.67207371615329
42.67166965815241
42.67167633123319
42.67168962467585
42.6717094299706
42.67173557671569
42.67176782360072
42.67180584670812
42.67184922556549
42.67189742767652
42.6719497926648
42.67200551767238
42.6716473322702
42.67165345972023
42.67166565576916
42.67168380031063
42.67170770725583
42.67173711766458
42.67177169105106
42.67181099536647
42.67185449640638
42.67190154769536
42.67195138224967
42.67163031892097
42.67163604073063
42.67164742161655
42.67166433421647
42.67168658285049
42.6717138982568
42.67174593110729
42.6717822448284
42.67182230845565
42.67186549047904
42.67191105487376
42.6716188503854
42.67162430367082
42.67163514526071
42.67165124363846
42.67167239775556
42.671698332828
42.67172869529756
42.67176304748487
42.67180086263466
42.67184152123342
42.67188430964696
42.67161307859008
42.67161839822302
42.67162897148602
42.67164466498922
42.67166527530482
42.67169052529033
42.6717200597628
42.67175344104854
42.67179014509041
42.6718295589503
42.67187098067932
40.05568633178257
41.35504129994761
40.05489182814979
41.35505276044083
40.05490301716719
41.35507575166739
40.05492548726023
41.35511040732761
40.05495941655667
41.35515691016325
40.0550050562962
41.35521546819352
40.05506270892842
41.35528627910035
40.05513269428233
41.35536947960374
40.05521529988404
41.35546507635043
40.05531071080547
41.35557285518097
40.05541891433165
41.35569226712101
40.05553957580433
41.35500031350936
40.05485259711638
41.35501048557683
40.05486249065684
41.35503086200257
40.05488232718756
41.35506150095117
40.05491219961765
41.3551024730517
40.05495223165656
41.35515383988049
40.05500255715148
41.35521562277012
40.05506328948604
41.35528776011444
40.05513447865448
41.35537005141308
40.055216053483
41.35546208694547
40.05530774689853
41.35556316347933
40.05540900351766
41.35496206425119
40.0548160358098
41.35497109077243
40.05482478173185
41.3549891470231
40.05484229040087
41.35501623369872
40.05486858994678
41.35505233719046
40.05490370833468
41.35509741106719
40.05494765512251
41.35515134996909
40.05500039531514
41.35521395502506
40.05506181404437
41.35528489017562
40.0551316709562
41.3553636294959
40.05520954380817
41.35544939694091
40.05529476208984
41.35492722948714
40.0547827799873
41.35493525956569
40.05479053109187
41.35495130131419
40.05480602586958
41.35497531304208
40.05482924465295
41.35500721984806
40.05486014568807
41.35504689831593
40.05489864979747
41.35509415546626
40.05494461900033
41.35514870170126
40.05499782857358
41.35521011781781
40.0550579323163
41.35527781681911
40.0551244214078
41.35535100231372
40.05519657833996
41.35489638262803
40.0547533643685
41.35490356696014
40.05476027376712
41.35491790163747
40.05477406762395
41.3549393146787
40.0547946920465
41.35496768802881
40.05482205606049
41.35500284531752
40.05485601918743
41.35504453541117
40.05489637455877
41.35509241188031
40.05494282752541
41.35514600883943
40.05499497002943
41.35520471416191
40.05505225155242
41.35526774186498
40.0551139482891
41.35486999772845
40.054728228246
41.35487648551301
40.05473444636689
41.35488941622917
40.05474684541733
41.35490869695846
40.05476534776061
41.35493418030594
40.05478982879156
41.35496565484709
40.05482010714304
41.35500283258754
40.05485593169394
41.35504533377507
40.05489696561408
41.35509266970054
40.05494276797046
41.35514422455505
40.05499277385969
41.35519923797439
40.05504627463539
41.3548484557134
40.05470772254786
41.35485439291301
40.05471339555489
41.35486621515742
40.0547246961074
41.35488381559485
40.05474153068147
41.35490702765435
40.05476375253087
41.35493561768862
40.05479115407461
41.35496927554973
40.05482345704444
41.35500760354587
40.05486030077573
41.35505010447971
40.05490122927507
41.35509616979591
40.05494567803851
41.3551450692559
40.05499296201575
41.35483205113171
40.0546921172141
41.35483757984834
40.05469738657439
41.35484858045973
40.05470787451767
41.35486493729613
40.05472347739772
41.3548864718775
40.05474403459159
41.35491293720937
40.05476932254355
41.35494401066312
40.05479904724989
41.35497928593487
40.05483283563682
41.35501826478893
40.05487022649692
41.35506034953912
40.05491066190931
41.35510483748988
40.05495348036053
41.35482099852739
40.05468160800761
41.35482625724492
40.05468661094118
41.35483671513006
40.05469656290585
41.35485225140489
40.05471135435096
41.35487268081163
40.05473081667962
41.35489774900645
40.05475471739864
41.35492712695151
40.05478275414197
41.35496040481481
40.05481454804836
41.35499708606841
40.05484963715752
41.35503658267079
40.05488747069501
41.35507821241118
40.05492740532613
41.35481543775274
40.05467632211766
41.35482056220716
40.05468119267844
41.35483075031641
40.05469087845964
41.35484587897793
40.05470526720899
41.35486575988986
40.05472418672085
41.35489013549108
40.05474740053754
41.35491867410025
40.05477460273464
41.35495096476604
40.05480541227853
41.35498651250647
40.05483936761458
41.35502473478458
40.05487592232247
41.355064960223
40.05491444284617
37.45503728855953
36.15481252033408
38.75536441254511
37.45515919518803
36.15492612348007
38.75550791808796
37.45529857333237
36.15505685969649
38.75473000929206
37.45455635596871
38.75474071834225
37.45456635776942
38.75476224592289
37.45458648194905
38.75479480605749
37.45461696593458
38.75483870638541
37.45465815547417
38.75489432908868
37.45471048909581
38.75496210033971
37.45477447204986
38.7550424437265
37.4548506348098
38.75513571202394
37.45493946975632
38.75524209106155
37.45504133851023
36.15481636186995
38.75536146991664
37.4551563421449
36.15492344375188
38.75469310977774
37.45452238833149
38.75470254675139
37.45453117635419
38.75472148415506
37.45454882533107
38.7547500435627
37.45457547660725
38.75478839323813
37.45461133012356
38.75483672911977
37.45465662771636
38.75489524599023
37.45471162713212
38.7549640959706
37.45477656356871
38.75504333109814
37.45485159494408
38.75513282689483
37.45493672693341
38.7552321849479
37.45503171457604
36.15480734200393
38.75465876397261
37.4544908053948
38.75466707788976
37.45449852515429
38.75468373399714
37.45451400125436
38.75470878371326
37.45453730228662
38.75474229085532
37.45456851918624
38.75478431431753
37.45460774943005
38.75483488281848
37.4546550735927