/*--------------------------------*- C++ -*----------------------------------*\
  =========                 |
  \\      /  F ield         | OpenFOAM: The Open Source CFD Toolbox
   \\    /   O peration     | Website:  https://openfoam.org
    \\  /    A nd           | Version:  7
     \\/     M anipulation  |
\*---------------------------------------------------------------------------*/
FoamFile
{
    version     2.0;
    format      ascii;
    class       volVectorField;
    location    "0";
    object      U;
}
// * * * * * * * * * * * * * * * * * * * * * * * * * * * * * * * * * * * * * //

dimensions      [0 1 -1 0 0 0 0];

internalField   nonuniform List<vector> 
12683
(
(1.000003804321585 -3.339981593596357e-06 2.968620973261838e-05)
(1.000011448101654 -3.369617430001982e-06 2.98021286129214e-05)
(1.000019195875358 -3.427641711335738e-06 3.002512348077992e-05)
(1.000027112197493 -3.511520222093508e-06 3.033753749286554e-05)
(1.00003525429114 -3.617359958057371e-06 3.071298784767112e-05)
(1.000043668803695 -3.739819008957123e-06 3.111657177523619e-05)
(1.000052388323151 -3.872019932820354e-06 3.150527539652611e-05)
(1.000061427690289 -4.005496232304829e-06 3.182869018276565e-05)
(1.000070780222245 -4.130208306122031e-06 3.203015334634215e-05)
(1.000080414058459 -4.234670542500334e-06 3.204842521835762e-05)
(1.000090268943903 -4.306231730303237e-06 3.181999531201085e-05)
(1.000003774685751 -9.977890919139331e-06 3.016680531375834e-05)
(1.000011360441538 -1.006752781159194e-05 3.029315967273376e-05)
(1.000019053972563 -1.024309604960873e-05 3.053681476212597e-05)
(1.000026922479246 -1.049706128024731e-05 3.087966571646549e-05)
(1.000035025992355 -1.081783464705845e-05 3.129459338069253e-05)
(1.000043414143721 -1.118948687660191e-05 3.174559853120604e-05)
(1.000052122645934 -1.15914674587101e-05 3.218812554166679e-05)
(1.000061169501916 -1.199841758913163e-05 3.256969068443658e-05)
(1.000070551047933 -1.23801876375334e-05 3.283094625232816e-05)
(1.000080238035036 -1.270218648332736e-05 3.290731307048492e-05)
(1.000090172068471 -1.292619408342853e-05 3.273129602147995e-05)
(1.000003714684697 -1.648876477496783e-05 3.112626609215613e-05)
(1.000011182896524 -1.664052569127659e-05 3.127382502965403e-05)
(1.00001876634188 -1.693799633107554e-05 3.155948659205891e-05)
(1.000026537458888 -1.736885299971727e-05 3.1964285623641e-05)
(1.000034561865542 -1.791409068887604e-05 3.245967843041727e-05)
(1.00004289517089 -1.854749601738524e-05 3.300752682249447e-05)
(1.000051579392447 -1.923510949646027e-05 3.356024105744953e-05)
(1.000060638970108 -1.993482592185893e-05 3.406121808602335e-05)
(1.000070076453347 -2.05963212635802e-05 3.444573605748676e-05)
(1.000079868052016 -2.116152642639048e-05 3.464247737872134e-05)
(1.000089959375622 -2.156588241983768e-05 3.457584335442285e-05)
(1.000003622924835 -2.278508274249138e-05 3.256071479240691e-05)
(1.000010911209977 -2.300228658402466e-05 3.274089467142372e-05)
(1.000018325645252 -2.34284933515585e-05 3.309124277652534e-05)
(1.000025946384882 -2.404695941438117e-05 3.35915958316517e-05)
(1.000033847349327 -2.483175973818903e-05 3.42113994135352e-05)
(1.000042093124915 -2.574694641676776e-05 3.490944948185855e-05)
(1.00005073531603 -2.674565204517117e-05 3.563373937849212e-05)
(1.00005980829015 -2.776934647251265e-05 3.632157858808159e-05)
(1.000069324347428 -2.874751726487818e-05 3.690018919950561e-05)
(1.00007926847388 -2.959809905305383e-05 3.728801417763755e-05)
(1.000089593001953 -3.02290103793856e-05 3.739697830942368e-05)
(1.000003497480856 -2.87753731964012e-05 3.446330744868698e-05)
(1.000010539485914 -2.90621991655071e-05 3.468844379481966e-05)
(1.000017721669053 -2.962579055676434e-05 3.512805893768328e-05)
(1.000025134192507 -3.044553508258729e-05 3.576057323990537e-05)
(1.000032861878538 -3.148933983478235e-05 3.655300068898928e-05)
(1.000040981278578 -3.271237876165237e-05 3.746033711897885e-05)
(1.000049556992387 -3.405569999953011e-05 3.842496692429965e-05)
(1.00005863710489 -3.544495817028559e-05 3.937629199302034e-05)
(1.000068247700768 -3.678962746757472e-05 4.023084799626825e-05)
(1.000078386558897 -3.798313885977458e-05 4.089322757288134e-05)
(1.000089016329761 -3.89044512111495e-05 4.125816428701642e-05)
(1.00000333609887 -3.436323030749243e-05 3.682304004472455e-05)
(1.000010060792617 -3.47242378278907e-05 3.710659157012556e-05)
(1.000016942309329 -3.543472802564653e-05 3.766238939917375e-05)
(1.000024082835609 -3.647097822476684e-05 3.84673909033423e-05)
(1.000031580505655 -3.779578042098765e-05 3.948599967924344e-05)
(1.000039526764751 -3.935666540836459e-05 4.066896696080135e-05)
(1.000048002736621 -4.108384911191815e-05 4.195217765521653e-05)
(1.000057074362678 -4.288821597152192e-05 4.325556594580078e-05)
(1.000066786166737 -4.465977961819789e-05 4.448249618649318e-05)
(1.000077153650137 -4.626719410619503e-05 4.552003807090099e-05)
(1.000088154561548 -4.755900743046028e-05 4.62406448051846e-05)
(1.000003136473338 -3.944694477680523e-05 3.962323143991138e-05)
(1.000009467988191 -3.988644574405696e-05 3.997988600450548e-05)
(1.000015974928646 -4.075296646217893e-05 4.068135847390407e-05)
(1.000022773140112 -4.202065818283312e-05 4.170332763662503e-05)
(1.000029976191356 -4.364858970285672e-05 4.300773981347175e-05)
(1.000037693209887 -4.557833104093833e-05 4.454106658830925e-05)
(1.000046025441828 -4.773105879212364e-05 4.623225005300349e-05)
(1.000055061174383 -5.000453387470735e-05 4.799061876221599e-05)
(1.000064868722632 -5.227046768935816e-05 4.970418623484455e-05)
(1.000075487331087 -5.437298509509896e-05 5.123889264808505e-05)
(1.000086916111657 -5.612908714921769e-05 5.243949889057808e-05)
(1.000002896597898 -4.391993772993935e-05 4.283976171004544e-05)
(1.00000875477093 -4.444122651550221e-05 4.328540871734198e-05)
(1.000014808096887 -4.547098585164923e-05 4.416459954947892e-05)
(1.000021187212365 -4.698245428367221e-05 4.545221309455295e-05)
(1.000028022832792 -4.893272581957056e-05 4.710832270671246e-05)
(1.000035444295661 -5.125958610788162e-05 4.90756338527025e-05)
(1.000043576533794 -5.387760010877994e-05 5.127632994677198e-05)
(1.000052534953777 -5.667381482179594e-05 5.360863505909954e-05)
(1.00006241771551 -5.950364836689741e-05 5.59435770168811e-05)
(1.000073295030675 -6.218780175188008e-05 5.812265685545268e-05)
(1.000085195383329 -6.451132760461286e-05 5.995738075226299e-05)
(1.000002615184549 -4.767218014431205e-05 4.643917899027623e-05)
(1.000007916940076 -4.827664213297339e-05 4.69907104440705e-05)
(1.000013433700883 -4.947312673760829e-05 4.808184546911697e-05)
(1.000019311400137 -5.123537805075938e-05 4.968749644272153e-05)
(1.000025699059532 -5.352059925089242e-05 5.176697884356999e-05)
(1.000032748335608 -5.626546224985531e-05 5.426044213012883e-05)
(1.00004061121312 -5.93810291502784e-05 5.708432789735135e-05)
(1.000049435126123 -6.274692668228123e-05 6.012616284127972e-05)
(1.000059354735702 -6.620536494862428e-05 6.323922127631365e-05)
(1.000070479651854 -6.95559389412247e-05 6.623790522946202e-05)
(1.000082877650029 -7.255257866749297e-05 6.889508396179503e-05)
(1.000002292135917 -5.059275326173731e-05 5.037682978727307e-05)
(1.000006953824348 -5.127889509727708e-05 5.105173320343e-05)
(1.000011849360973 -5.263989696250828e-05 5.239042671832162e-05)
(1.000017139739851 -5.465156998202886e-05 5.436909081075622e-05)
(1.000022992748598 -5.72735687472153e-05 5.694801301197169e-05)
(1.000029583865765 -6.044454429919073e-05 6.006683015522845e-05)
(1.000037095069362 -6.407580779037747e-05 6.363829928695124e-05)
(1.000045710617976 -6.804377780528447e-05 6.754085945526178e-05)
(1.000055608703252 -7.218177076520172e-05 7.16105224711314e-05)
(1.000066947816962 -7.627212315243664e-05 7.563305958395881e-05)
(1.000079846857672 -8.004021427271189e-05 7.93380193802727e-05)
(1.000001929042714 -5.257364959068251e-05 5.459521113593276e-05)
(1.000005869796377 -5.333612248829112e-05 5.541092518552659e-05)
(1.000010061026 -5.485172963869389e-05 5.703289677056846e-05)
(1.000014677728357 -5.709994711736115e-05 5.944022866168604e-05)
(1.000019906085212 -6.004533458199869e-05 6.259657021794408e-05)
(1.000025946096555 -6.363186945026576e-05 6.64440165127902e-05)
(1.000033011979615 -6.777534838158359e-05 7.089491064804505e-05)
(1.00004132916314 -7.235400856274378e-05 7.582169721076576e-05)
(1.000051126390349 -7.719782605683596e-05 8.104529973129658e-05)
(1.000062621208348 -8.207745252501406e-05 8.632303002209524e-05)
(1.000075997135798 -8.669449226593299e-05 9.133784018522335e-05)
(1.000003861400553 -3.097762120427899e-06 2.841437504090988e-05)
(1.000011614850107 -3.122271702975291e-06 2.851823842946624e-05)
(1.000019458849213 -3.170154149672569e-06 2.8717566082562e-05)
(1.000027449075705 -3.239109132729326e-06 2.899561040612713e-05)
(1.0000356340557 -3.325625035263285e-06 2.932740396532892e-05)
(1.000044052091796 -3.424922442203973e-06 2.968001882934943e-05)
(1.000052728044311 -3.530907170507927e-06 3.001303241934036e-05)
(1.000061670015351 -3.63615696219469e-06 3.027929154608727e-05)
(1.000070866053598 -3.731971057472979e-06 3.042607414687334e-05)
(1.000080281076915 -3.808514758505641e-06 3.0396742273231e-05)
(1.000089854292364 -3.855090699839131e-06 3.013295711751229e-05)
(1.000003836890971 -9.252206201412077e-06 2.88649468727547e-05)
(1.000011542458081 -9.326306900506029e-06 2.897812427473335e-05)
(1.000019342011787 -9.471126147858821e-06 2.919586746492458e-05)
(1.000027293604819 -9.679815129953932e-06 2.950098175475828e-05)
(1.000035448242389 -9.941907321673607e-06 2.986777555422912e-05)
(1.000043846809659 -1.024313694829548e-05 3.026226112501358e-05)
(1.000052516809786 -1.05652817896267e-05 3.064255208173852e-05)
(1.000061468951462 -1.088610326264683e-05 3.095955927152495e-05)
(1.000070693695801 -1.11794724732721e-05 3.115809756804022e-05)
(1.00008015795727 -1.141578102066883e-05 3.11785138487065e-05)
(1.000089802244766 -1.156273467554577e-05 3.095892565443485e-05)
(1.000003787299856 -1.528274186980835e-05 2.976411073564591e-05)
(1.000011395930162 -1.54080943468964e-05 2.989619205253335e-05)
(1.000019105340987 -1.565325777829153e-05 3.01513327438205e-05)
(1.000026978294535 -1.60069956135911e-05 3.051147141870235e-05)
(1.000035070733877 -1.64520984735399e-05 3.094950498683236e-05)
(1.000043428717321 -1.6965041888823e-05 3.142936621758376e-05)
(1.000052085077996 -1.751567050637489e-05 3.190627631299859e-05)
(1.000061055824669 -1.806703165534207e-05 3.232729334095164e-05)
(1.000070336375841 -1.857550958668856e-05 3.26322957315827e-05)
(1.000079897814714 -1.899143215328316e-05 3.275554523218822e-05)
(1.000089683461948 -1.926032444778282e-05 3.262795850364948e-05)
(1.000003711538498 -2.110461278354972e-05 3.110753093073393e-05)
(1.000011171942178 -2.128379966670471e-05 3.126863939373353e-05)
(1.000018743110522 -2.163462234055857e-05 3.158125660042942e-05)
(1.000026494764127 -2.214173789420024e-05 3.202609236208086e-05)
(1.000034490196114 -2.278156981461152e-05 3.257402227281158e-05)
(1.00004278323762 -2.352174729166881e-05 3.318596618564199e-05)
(1.000051414820025 -2.432055188466939e-05 3.381290267578961e-05)
(1.000060409112384 -2.512654529052502e-05 3.439616866658237e-05)
(1.0000697692953 -2.587859671524642e-05 3.486822405735921e-05)
(1.000079473142413 -2.650656384535821e-05 3.515407853416102e-05)
(1.000089468715921 -2.693289528828839e-05 3.517357455360345e-05)
(1.000003608112976 -2.663010386230269e-05 3.288777775626025e-05)
(1.000010865920608 -2.686634858970008e-05 3.308878895680297e-05)
(1.000018247402759 -2.732949891464264e-05 3.34805145728855e-05)
(1.000025831347058 -2.800052503900976e-05 3.404216543328051e-05)
(1.000033690724476 -2.885005218014857e-05 3.474211170622194e-05)
(1.00004188973525 -2.983750497843654e-05 3.553747037301188e-05)
(1.000050480280001 -3.091021024452213e-05 3.637376435121757e-05)
(1.000059497779838 -3.200268211725775e-05 3.718483909258683e-05)
(1.000068956357283 -3.303637953278405e-05 3.789327058933949e-05)
(1.000078843516141 -3.392028426632855e-05 3.841153626899912e-05)
(1.000089114626845 -3.455268191747043e-05 3.864423656738561e-05)
(1.000003475293767 -3.176789764026352e-05 3.509325836283258e-05)
(1.000010472547118 -3.206466616053499e-05 3.534595802845422e-05)
(1.000017608934069 -3.264737757069387e-05 3.584031275632065e-05)
(1.000024974210861 -3.349389154023572e-05 3.655389577956612e-05)
(1.00003265321617 -3.456983024342502e-05 3.74522712989668e-05)
(1.000040723079553 -3.582733807425615e-05 3.848817905582918e-05)
(1.000049249642892 -3.720371207266215e-05 3.96006908577981e-05)
(1.000058282943098 -3.862017425882676e-05 4.071456689391839e-05)
(1.00006785169315 -3.998114956787452e-05 4.174011241842014e-05)
(1.00007795684003 -4.117450326589473e-05 4.257390349060597e-05)
(1.000088564484137 -4.207325973695682e-05 4.310079838696303e-05)
(1.000003311344455 -3.642297698152601e-05 3.770686775973897e-05)
(1.000009986440676 -3.678346305638625e-05 3.802402225612066e-05)
(1.000016818177378 -3.749251030621987e-05 3.864657882384371e-05)
(1.000023908894389 -3.852561547857228e-05 3.955051114741138e-05)
(1.00003135727795 -3.984444796721435e-05 4.069852756947443e-05)
(1.000039255853414 -4.139512965156111e-05 4.203872013825844e-05)
(1.000047687443814 -4.310625135570549e-05 4.35030372079952e-05)
(1.000056720342348 -4.488693700957819e-05 4.500585085352213e-05)
(1.000066402028278 -4.662539068764806e-05 4.644299637668294e-05)
(1.000076751405977 -4.818849418394146e-05 4.769177172709685e-05)
(1.000087749790363 -4.942314199071501e-05 4.861248351262231e-05)
(1.000003114807696 -4.049723231451204e-05 4.070443736070606e-05)
(1.000009403013793 -4.092373478501744e-05 4.109974764121575e-05)
(1.00001586678164 -4.176418804579713e-05 4.187806188626919e-05)
(1.000022622273197 -4.299264759978645e-05 4.301401619959548e-05)
(1.000029783701999 -4.456814908519756e-05 4.4467737520204e-05)
(1.000037461276164 -4.643241801587526e-05 4.618280546386847e-05)
(1.000045757835526 -4.850713031333106e-05 4.808382512426957e-05)
(1.000054763803768 -5.069106158552546e-05 5.007392166640404e-05)
(1.000064550135985 -5.285762149796596e-05 5.203261317410212e-05)
(1.000075159088732 -5.485345669659264e-05 5.381468874392655e-05)
(1.000086592913513 -5.649899419203006e-05 5.525089203086824e-05)
(1.000002884841983 -4.38909187234772e-05 4.405308970412127e-05)
(1.000008719484944 -4.438413147333658e-05 4.454099855215706e-05)
(1.000014749264562 -4.535792599224357e-05 4.550424494809156e-05)
(1.000021104933347 -4.678599608917819e-05 4.691665798390726e-05)
(1.000027917507534 -4.862631794821917e-05 4.873645505422889e-05)
(1.000035316872187 -5.081821761844688e-05 5.090335121944295e-05)
(1.000043428800234 -5.327875094486735e-05 5.33349873506061e-05)
(1.000052369851161 -5.589873936827589e-05 5.592301346601904e-05)
(1.000062239633169 -5.853900044981189e-05 5.852935633825653e-05)
(1.000073110033285 -6.102756146881295e-05 6.098344826792775e-05)
(1.000085011306196 -6.315892430273763e-05 6.308147301778893e-05)
(1.000002621594947 -4.650507775056418e-05 4.770964338039613e-05)
(1.000007936006527 -4.706333060535738e-05 4.830496787637942e-05)
(1.000013464917027 -4.816772500395671e-05 4.948321942870485e-05)
(1.000019353881238 -4.979278793286925e-05 5.121825332254944e-05)
(1.000025751480472 -5.189721324265112e-05 5.346750714702967e-05)
(1.000032808843169 -5.442024774682281e-05 5.61680891997264e-05)
(1.000040677313771 -5.727710359158693e-05 5.923180002404914e-05)
(1.000049503554258 -6.035371690526288e-05 6.253942179923476e-05)
(1.000059421313882 -6.350140390679343e-05 6.593485627881547e-05)
(1.000070539164878 -6.653228213330338e-05 6.922003383152025e-05)
(1.00008292376886 -6.921671456475025e-05 7.215193739202759e-05)
(1.000002326589126 -4.824498549472821e-05 5.161924797289215e-05)
(1.00000705683769 -4.886349510172242e-05 5.233661680565754e-05)
(1.000012019807232 -5.008953441138522e-05 5.375972347558961e-05)
(1.0000173754451 -5.189970004017818e-05 5.58635977929252e-05)
(1.000023290047714 -5.425528339480453e-05 5.860651639446242e-05)
(1.000029936981837 -5.709798345502482e-05 6.192491416046082e-05)
(1.000037495331076 -6.034432415960072e-05 6.572673879885323e-05)
(1.000046145550842 -6.387903854263188e-05 6.988354037651457e-05)
(1.000056061067942 -6.754794071858442e-05 7.422188738814767e-05)
(1.000067394722626 -7.115119027891797e-05 7.851514960388576e-05)
(1.000080259148448 -7.443836576080101e-05 8.247729068047201e-05)
(1.00000391189438 -2.873317909900494e-06 2.654779549702968e-05)
(1.000011762120948 -2.893307085870124e-06 2.663862194829377e-05)
(1.000019690296336 -2.932258135933695e-06 2.681249312046655e-05)
(1.000027743815294 -2.9880998991471e-06 2.705391241816908e-05)
(1.000035963142716 -3.057689382702088e-06 2.733982618297028e-05)
(1.000044378918886 -3.13678234260765e-06 2.763991855934426e-05)
(1.000053008998472 -3.22001742345843e-06 2.791710893057506e-05)
(1.000061855483508 -3.300933231581272e-06 2.812832996195339e-05)
(1.000070901867639 -3.372041188391276e-06 2.822566918321121e-05)
(1.000080110472962 -3.424978553733227e-06 2.815794878463506e-05)
(1.000089420424916 -3.45076431516718e-06 2.787279553961844e-05)
(1.000003891905209 -8.579950377086385e-06 2.696047610186045e-05)
(1.000011703180722 -8.640361557588785e-06 2.70594270804586e-05)
(1.000019595503519 -8.758123436182277e-06 2.724934114493343e-05)
(1.000027618384054 -8.927062379017278e-06 2.751429145191486e-05)
(1.000035814460275 -9.137801448154924e-06 2.783053589326123e-05)
(1.000044216590838 -9.377662796363861e-06 2.816676560390976e-05)
(1.000052844847584 -9.630607708276262e-06 2.848454951309676e-05)
(1.000061703459742 -9.877272876797125e-06 2.873906194951087e-05)
(1.000070777822319 -1.009517242467338e-05 2.888018724567227e-05)
(1.000080031749841 -1.025914056383178e-05 2.885408995534368e-05)
(1.000089405228432 -1.034208550185288e-05 2.860531762803048e-05)
(1.000003851483204 -1.416608842608962e-05 2.778371566813933e-05)
(1.000011583947892 -1.426820646515648e-05 2.789913797713722e-05)
(1.000019403595512 -1.446741473223398e-05 2.812159343119489e-05)
(1.000027364137282 -1.475355986809597e-05 2.843431536097157e-05)
(1.000035512542299 -1.511119230362365e-05 2.881221209087983e-05)
(1.000043886112623 -1.551937292065433e-05 2.922201774686482e-05)
(1.000052509388396 -1.595153209475569e-05 2.962262457457539e-05)
(1.000061390918789 -1.637548048443728e-05 2.996570085138801e-05)
(1.000070519999945 -1.675369025272251e-05 3.019671141735168e-05)
(1.000079863559885 -1.704397728915399e-05 3.025645765060001e-05)
(1.000089363456338 -1.72007103455954e-05 3.008323577182779e-05)
(1.000003789787172 -1.954985617573948e-05 2.901293968090852e-05)
(1.000011401854422 -1.96956683644229e-05 2.915360807564952e-05)
(1.000019110150116 -1.998041217134684e-05 2.942598235877724e-05)
(1.000026974606476 -2.039016918256495e-05 2.981208963021981e-05)
(1.000035048647216 -2.090370277899331e-05 3.028488499307995e-05)
(1.000043376251048 -2.14921242516439e-05 3.08082441184048e-05)
(1.000051988740026 -2.21186108665051e-05 3.133711056246843e-05)
(1.000060901301581 -2.273831694629007e-05 3.18179276765917e-05)
(1.000070109325508 -2.329865044340904e-05 3.218950705785603e-05)
(1.000079584729749 -2.374010833714398e-05 3.238449495439769e-05)
(1.000089272556707 -2.39978652435146e-05 3.233158682245313e-05)
(1.000003705671022 -2.464729835168649e-05 3.064047254186503e-05)
(1.000011153391902 -2.483926199700325e-05 3.081576133596539e-05)
(1.000018709094694 -2.521462525407798e-05 3.115666734210236e-05)
(1.000026440846675 -2.575602440574894e-05 3.164371396513484e-05)
(1.000034410587222 -2.643686763021427e-05 3.224739257752052e-05)
(1.00004267120453 -2.722080114188317e-05 3.29279230494955e-05)
(1.000051263195703 -2.806120509497823e-05 3.363512404668377e-05)
(1.000060210879208 -2.890090286073474e-05 3.430855675099763e-05)
(1.000069518208556 -2.967231452080179e-05 3.487814164553467e-05)
(1.00007916434509 -3.029832015672845e-05 3.526547200660686e-05)
(1.000089099284525 -3.069411224107631e-05 3.538604978501229e-05)
(1.000003597823528 -2.937202994479252e-05 3.265460331426819e-05)
(1.000010834527519 -2.961274618887938e-05 3.287460415890558e-05)
(1.000018193387707 -3.00841614808777e-05 3.330414108364718e-05)
(1.000025752364097 -3.07659058842449e-05 3.392203485308467e-05)
(1.000033583870478 -3.162663541396391e-05 3.46959384275963e-05)
(1.000041751913588 -3.262322814814025e-05 3.558177500497531e-05)
(1.000050308638307 -3.369995936037682e-05 3.652321501363809e-05)
(1.00005929019215 -3.47878823562974e-05 3.745139592976516e-05)
(1.000068711908214 -3.580470647559185e-05 3.828514454933408e-05)
(1.000078562932031 -3.665552166479045e-05 3.893200784626109e-05)
(1.000088800588559 -3.72347516652367e-05 3.929042207919765e-05)
(1.000003464954778 -3.363536652632208e-05 3.503841550586395e-05)
(1.000010441260368 -3.392716365116006e-05 3.531397966835613e-05)
(1.000017555935004 -3.449958342738322e-05 3.585383420827866e-05)
(1.00002489837274 -3.5329819177693e-05 3.663503020674295e-05)
(1.000032553264956 -3.638257110975844e-05 3.762219261327346e-05)
(1.000040597880586 -3.7608896555364e-05 3.876652755065692e-05)
(1.000049098541494 -3.894495544095861e-05 4.000476187315777e-05)
(1.000058106132092 -4.031091642753307e-05 4.125826296479548e-05)
(1.000067650569249 -4.161037761965414e-05 4.243267003296406e-05)
(1.000077734299903 -4.273074322353086e-05 4.341844602051522e-05)
(1.000088325102312 -4.354506158771886e-05 4.409281819925882e-05)
(1.0000033060264 -3.734706500537457e-05 3.77684541889831e-05)
(1.000009970310621 -3.769150106815672e-05 3.811113588971502e-05)
(1.00001679073219 -3.8368403080668e-05 3.878448595741871e-05)
(1.000023869376415 -3.935323077803724e-05 3.976388560422706e-05)
(1.000031304793099 -4.060772949159034e-05 4.101098092723616e-05)
(1.000039189529256 -4.20783610636514e-05 4.247213445869218e-05)
(1.000047606618437 -4.369450888841422e-05 4.407665391599102e-05)
(1.000056624769969 -4.536675354619544e-05 4.573509216400956e-05)
(1.000066292081413 -4.698563269316163e-05 4.733802777767673e-05)
(1.000076628248066 -4.842142247912232e-05 4.875585969226374e-05)
(1.000087615488161 -4.952558847295485e-05 4.9840260130996e-05)
(1.000003120518715 -4.041678819704519e-05 4.081333159033918e-05)
(1.000009419922294 -4.081409260370621e-05 4.123520877152805e-05)
(1.000015894205295 -4.159635643148993e-05 4.206638072008352e-05)
(1.000022659046329 -4.273813246033985e-05 4.328085784295205e-05)
(1.000029828134676 -4.419940927575248e-05 4.483764850204915e-05)
(1.000037511101197 -4.592356122657251e-05 4.667851539168632e-05)
(1.000045810149018 -4.783491229217636e-05 4.872529472570584e-05)
(1.000054815008281 -4.983623011660441e-05 5.087711200406764e-05)
(1.00006459590031 -5.18066131632588e-05 5.300798449852263e-05)
(1.000075194344128 -5.36004029588567e-05 5.496548469103723e-05)
(1.000086611912176 -5.504792454508421e-05 5.657132484124709e-05)
(1.000002908721997 -4.27563750502383e-05 4.413240125073907e-05)
(1.000008790742386 -4.320486190747596e-05 4.464575330774001e-05)
(1.000014866692329 -4.4089579916904e-05 4.565958817566038e-05)
(1.000021266323571 -4.538509660030592e-05 4.714706888897553e-05)
(1.00002811936433 -4.705100521719898e-05 4.906524236232105e-05)
(1.000035554026238 -4.902935410990558e-05 5.135195479630391e-05)
(1.000043693949549 -5.124149379127122e-05 5.392204412508595e-05)
(1.000052653069098 -5.358466064597793e-05 5.66631693192014e-05)
(1.000062527908574 -5.592879218046881e-05 5.943184099055374e-05)
(1.000073386936688 -5.811428962247746e-05 6.205047680602919e-05)
(1.000085256906995 -5.995168883837987e-05 6.43065953992633e-05)
(1.000002672031855 -4.428294773731108e-05 4.767465961165606e-05)
(1.000008086717426 -4.477844914867586e-05 4.829148855200986e-05)
(1.000013713970598 -4.575776669412475e-05 4.951238728212473e-05)
(1.000019697621025 -4.719645009936053e-05 5.131042812904943e-05)
(1.000026183877164 -4.905515557679902e-05 5.364173062267573e-05)
(1.000033320612621 -5.127654792277685e-05 5.644139401450613e-05)
(1.000041254842482 -5.378139606841325e-05 5.961834004475371e-05)
(1.000050127709893 -5.646416151852643e-05 6.304942933743684e-05)
(1.000060066271337 -5.918858243327898e-05 6.657347091598661e-05)
(1.000071171447473 -6.178403006701202e-05 6.998609384822863e-05)
(1.000083501783269 -6.404374558810501e-05 7.303687562671805e-05)
(1.000003955470803 -2.670342931068202e-06 2.414110185132281e-05)
(1.00001188900121 -2.686437815834161e-06 2.421852365981199e-05)
(1.000019888971488 -2.717704402716962e-06 2.436635230513707e-05)
(1.000027995242091 -2.762287996039953e-06 2.45706345375545e-05)
(1.000036240990626 -2.817389975616782e-06 2.481065259369706e-05)
(1.000044649991785 -2.87925943400069e-06 2.505923437414447e-05)
(1.000053233898981 -2.943200852138042e-06 2.528325514150602e-05)
(1.000061989595614 -3.003613120429415e-06 2.5444395124863e-05)
(1.000070896730236 -3.05407734963854e-06 2.550022013676332e-05)
(1.000079915600644 -3.087511401349616e-06 2.540564289144064e-05)
(1.000088985600448 -3.096407107659206e-06 2.511480101814315e-05)
(1.000003939375918 -7.972146033189045e-06 2.450945186981001e-05)
(1.000011841639735 -8.020772446215476e-06 2.459379145279008e-05)
(1.000019813121307 -8.115272248176136e-06 2.475526318064095e-05)
(1.000027895556525 -8.25011208691916e-06 2.497951473667834e-05)
(1.000036124019193 -8.416936202038779e-06 2.524519617610148e-05)
(1.000044524180905 -8.604534213279071e-06 2.552423462458688e-05)
(1.000053109545287 -8.798854875139385e-06 2.578229651373201e-05)
(1.000061878719117 -8.983111985812271e-06 2.597950956362296e-05)
(1.000070812831957 -9.138035873599568e-06 2.60715206084061e-05)
(1.000079873270883 -9.242325408813974e-06 2.601095837646432e-05)
(1.000088999951354 -9.27335014956756e-06 2.574934877455138e-05)
(1.000003906844387 -1.315697602493978e-05 2.524400541717719e-05)
(1.000011745874989 -1.323912117488621e-05 2.534235506788418e-05)
(1.000019659631848 -1.33988793780125e-05 2.553147011408189e-05)
(1.000027693578145 -1.362713320667809e-05 2.579621530656307e-05)
(1.000035886568498 -1.391009404796472e-05 2.611399613492727e-05)
(1.000044268073107 -1.422922485448141e-05 2.645495863702201e-05)
(1.000052855321207 -1.456123228292746e-05 2.678236768618158e-05)
(1.000061650414618 -1.487820643569204e-05 2.705325096141745e-05)
(1.000070637516814 -1.514799978188467e-05 2.721940386285485e-05)
(1.000079780286365 -1.533494126137622e-05 2.722884714829586e-05)
(1.000089019789635 -1.540097420974978e-05 2.702780972494351e-05)
(1.000003857230766 -1.814582888703951e-05 2.634018529734673e-05)
(1.000011599736378 -1.826301118941445e-05 2.645997190153804e-05)
(1.000019425109275 -1.849115292994805e-05 2.669141673954537e-05)
(1.000027384341856 -1.881771790340181e-05 2.701824940847411e-05)
(1.000035521927537 -1.92237043095963e-05 2.74160600728839e-05)
(1.000043873042669 -1.968348823101516e-05 2.785237752976104e-05)
(1.000052460563711 -2.016474886314267e-05 2.828690880130072e-05)
(1.000061291951614 -2.062858739495573e-05 2.86720497171724e-05)
(1.000070356097128 -2.102997255289449e-05 2.895379115663857e-05)
(1.000079620296456 -2.131865611872841e-05 2.907314887234957e-05)
(1.000089027610768 -2.144069506020941e-05 2.896822893760926e-05)
(1.000003789662083 -2.285838081145434e-05 2.779042909084587e-05)
(1.000011400550943 -2.301245978327318e-05 2.793954487510239e-05)
(1.000019104925136 -2.331283452067802e-05 2.822896347733594e-05)
(1.00002696102677 -2.374379606221174e-05 2.864097763226742e-05)
(1.000035020798171 -2.428146112268527e-05 2.914885892657504e-05)
(1.000043327028554 -2.489349084076355e-05 2.971675658347535e-05)
(1.000051910222044 -2.553888777996566e-05 3.029972857215834e-05)
(1.000060785190924 -2.616801856416991e-05 3.084404391824157e-05)
(1.00006994744809 -2.672304070749512e-05 3.128792122586417e-05)
(1.000079369563863 -2.713893162938028e-05 3.156288218586486e-05)
(1.000088997760243 -2.734531683143503e-05 3.159589070178521e-05)
(1.000003703151794 -2.721288527736733e-05 2.958339369204816e-05)
(1.000011145282669 -2.740579716631316e-05 2.9770281075027e-05)
(1.000018693772997 -2.778245474661124e-05 3.013445583994615e-05)
(1.000026415715257 -2.832431400485562e-05 3.065654443244241e-05)
(1.00003437223276 -2.9003073067604e-05 3.130709482985622e-05)
(1.000042615616014 -2.9780211975405e-05 3.204622563712805e-05)
(1.000051186035992 -3.060658718192193e-05 3.282335964698446e-05)
(1.00006010779869 -3.142226424546979e-05 3.357721744788096e-05)
(1.000069385184063 -3.215681659995158e-05 3.423628771481714e-05)
(1.00007899802033 -3.273035160936794e-05 3.472002005699972e-05)
(1.000088897282465 -3.305553530715326e-05 3.494099276513137e-05)
(1.000003596750194 -3.112648857183053e-05 3.170296585521122e-05)
(1.000010830981471 -3.135991233953216e-05 3.193663886418407e-05)
(1.000018186408297 -3.181643882842049e-05 3.23935456724348e-05)
(1.000025740408448 -3.247512720045043e-05 3.30525134888866e-05)
(1.000033564900192 -3.330386823445515e-05 3.388109572099988e-05)
(1.000041723514436 -3.425868593223596e-05 3.48348861423556e-05)
(1.000050268169772 -3.528304677610879e-05 3.585684406450476e-05)
(1.000059234961508 -3.630739448520101e-05 3.687684837294643e-05)
(1.000068639360728 -3.724919020491044e-05 3.781175921369043e-05)
(1.00007847084515 -3.801379048698733e-05 3.856631950194242e-05)
(1.000088687255084 -3.849652400694998e-05 3.903525633530701e-05)
(1.000003469728021 -3.451606922792386e-05 3.412714613615399e-05)
(1.000010455332409 -3.479103320879511e-05 3.441712989005212e-05)
(1.00001757855814 -3.53297648739586e-05 3.498582961607583e-05)
(1.000024928285849 -3.610946898622196e-05 3.581026220085097e-05)
(1.000032588674024 -3.709499834034669e-05 3.685488828790858e-05)
(1.000040636437472 -3.823785918203427e-05 3.807049182702523e-05)
(1.000049137327439 -3.947514985953413e-05 3.939296299488761e-05)
(1.000058141655265 -4.07286822326087e-05 4.074224781489863e-05)
(1.000067678788064 -4.190461723154785e-05 4.202181537409485e-05)
(1.000077750686527 -4.289402379167727e-05 4.311907927512235e-05)
(1.000088324762229 -4.357482659769265e-05 4.390727311467506e-05)
(1.000003321786212 -3.729968784088396e-05 3.682689688799816e-05)
(1.000010017285825 -3.761613485594294e-05 3.718306747173684e-05)