/*--------------------------------*- C++ -*----------------------------------*\
  =========                 |
  \\      /  F ield         | OpenFOAM: The Open Source CFD Toolbox
   \\    /   O peration     | Website:  https://openfoam.org
    \\  /    A nd           | Version:  7
     \\/     M anipulation  |
\*---------------------------------------------------------------------------*/
FoamFile
{
    version     2.0;
    format      ascii;
    class       volVectorField;
    location    "0";
    object      grad(Phi);
}
// * * * * * * * * * * * * * * * * * * * * * * * * * * * * * * * * * * * * * //

dimensions      [0 1 -1 0 0 0 0];

internalField   nonuniform List<vector> 
12676
(
(-0.3333216131596916 -8.535166587856398e-06 -6.093901110112563e-06)
(-0.9999464189601578 -8.942325411436077e-06 -6.385998260646165e-06)
(-0.9999078231936683 -9.79245152794756e-06 -6.99611044823718e-06)
(-0.9998646436810762 -1.116262622301835e-05 -7.980071191312887e-06)
(-0.9998144609097015 -1.318342839886925e-05 -9.43258027590874e-06)
(-0.9997541564008633 -1.606095004137154e-05 -1.150333820413369e-05)
(-0.9996795198760438 -2.011441386784386e-05 -1.442464703624372e-05)
(-0.9995846440092316 -2.584006631641636e-05 -1.855840465787454e-05)
(-0.9994609544868235 -3.402106143468663e-05 -2.447753780667828e-05)
(-0.9992955943317438 -4.592302969350402e-05 -3.31137447284434e-05)
(-0.9990758915637475 -6.496083787911478e-05 -4.806040064145653e-05)
(-0.3333218776932826 -2.531120430690694e-05 -6.029153997062208e-06)
(-0.9999476442502604 -2.650652340490802e-05 -6.315163839160666e-06)
(-0.9999099869684421 -2.900059558377573e-05 -6.912178577190033e-06)
(-0.9998679482928097 -3.301574464623769e-05 -7.873975879160122e-06)
(-0.9998192344715807 -3.89276696170037e-05 -9.291583350325135e-06)
(-0.9997609109856161 -4.732729201770295e-05 -1.130850890446732e-05)
(-0.9996890506152832 -5.912590396087753e-05 -1.414671900004153e-05)
(-0.9995981987452146 -7.573273650179602e-05 -1.815059828621432e-05)
(-0.9994805318463409 -9.935703915677319e-05 -2.386161593096912e-05)
(-0.9993245129125452 -0.0001335232647087655 -3.214523485059769e-05)
(-0.9991187819559365 -0.0001874162514668159 -4.632671258509919e-05)
(-0.3333219156888826 -8.431980431712622e-06 -2.706212839384632e-05)
(-0.999947820606807 -8.829445174995882e-06 -2.834517159471802e-05)
(-0.9999102996998281 -9.658717747658311e-06 -3.102302328334029e-05)
(-0.999868428910987 -1.099361642950722e-05 -3.533602570585796e-05)
(-0.9998199345566681 -1.295889572060741e-05 -4.16906107185313e-05)
(-0.9997619119331513 -1.575083133048943e-05 -5.072655537090646e-05)
(-0.9996904804257131 -1.967226377694421e-05 -6.343118867399331e-05)
(-0.999600261893107 -2.519165540376334e-05 -8.133179367908206e-05)
(-0.9994835672472901 -3.304215168279471e-05 -0.000106822183525239)
(-0.999329121385374 -4.438386370499198e-05 -0.0001437233315853903)
(-0.9991249382901646 -6.226680045666253e-05 -0.0002027826542661367)
(-0.3333221739177621 -2.50063020901019e-05 -2.67756900429155e-05)
(-0.9999490160920176 -2.617321026030159e-05 -2.803208890519709e-05)
(-0.9999124086942899 -2.86062010687806e-05 -3.065267062904889e-05)
(-0.9998716448680821 -3.251811767412944e-05 -3.486892178433835e-05)
(-0.9998245702639593 -3.826774579133199e-05 -4.107149537691797e-05)
(-0.9997684537856433 -4.641753153742034e-05 -4.987366156622302e-05)
(-0.9996996802898584 -5.783141262555695e-05 -6.221885036370033e-05)
(-0.999613291531518 -7.383941259183596e-05 -7.956150360583631e-05)
(-0.9995022735138608 -9.651473496647417e-05 -0.0001041720538468662)
(-0.9993564321155592 -0.0001291270517766152 -0.0001396433101943058)
(-0.9991648506973404 -0.0001799731411470947 -0.0001958311864480156)
(-0.9986454170683817 -5.246752401705429e-05 -3.872692805525449e-05)
(-0.9987057885197324 -0.0002537563745604676 -3.783010774564359e-05)
(-0.9988197560193842 -0.0004134553030227681 -3.373355228011561e-05)
(-0.9989104102384118 -0.000276807131820874 -0.0003055440713332951)
(-0.9988810065502162 -0.000400452937315569 -0.0002422533917430969)
(-0.9987425299629308 -0.0001544763955135184 -0.0002766085069857473)
(-0.9981005293959578 -3.994507100476658e-05 -0.0003065345631497474)
(-0.9981800627018966 -0.0003454668762341355 -0.0002944834912690221)
(-0.9983800207208299 -0.0005989702735575962 -0.0002683005541746288)
(-0.9981395126386513 -3.927925411389361e-05 -0.0003875633507017881)
(-0.9982181022061343 -0.0003380323177910819 -0.0003713538965355619)
(-0.9984188885437209 -0.0005917459419972779 -0.0003417261227527002)
(-0.997395645710009 -0.0004235292245597175 -0.00046827788551707)
(-0.9974515909460793 -0.000535326823925143 -0.0004601555172773889)
(-0.9972132014274572 -0.00060165704450007 -0.0005183529611330747)
(-0.9977828926465626 -0.0009075686545893062 -0.0004120952218907664)
(-0.9968968048062371 -0.001436377740466056 -0.0006584851418991701)
(-0.9974624219605237 -0.0004149169505615041 -0.0005897328835189213)
(-0.9975167250010453 -0.000524536918165863 -0.0005796058025193129)
(-0.9978380636832154 -0.0008901289571383571 -0.0005195472023583217)
(-0.99699454763267 -0.001401375383205907 -0.0008256512400739162)
(-0.9966113515508708 -0.001623083738112339 -0.0007463301082284886)
(-0.9934334828442678 -0.004209097642954159 -0.001998913531319463)
(-0.9967251304491003 -0.001580984856985877 -0.000934231184484982)
(-0.9972260139737054 -0.0004662293723329219 -0.0006641054727845279)
(-0.9959480010570144 -0.0007680834797614566 -0.001107215577525953)
(-0.9906145313842297 -0.0003246708016623017 -0.003421807017063186)
(-0.997288578690619 -0.0005888351301800513 -0.0006520758063919651)
(-0.9960630159167198 -0.0009655063433172993 -0.001081811438804666)
(-0.9971485824095815 -0.0004764617440445539 -0.0005280059024082408)
(-0.9958014711416637 -0.0007898349933691512 -0.0008860722651108606)
(-0.990006786036804 -0.0003405838977558391 -0.002797039414319269)
(-0.9959214379403905 -0.000992623410779227 -0.0008655322431546474)
(-0.9911279901622458 -0.002798998774759013 -0.00254007580609578)
(-0.9927406279085843 -0.004898770420572421 -0.00234257907869566)
(-0.9872435242625814 -0.01001636702240559 -0.0002388618341434495)
(-0.9893258175232454 -0.0003856155565092039 -0.00410284404852175)
(-0.9836379066192312 -0.005452476781789337 -0.007665549549865367)
(-0.9822614101056546 -0.03453138056769878 -0.02626740344269969)
(-0.9885602281342417 -0.0004064274445566954 -0.003370335567187144)
(-0.9827897966455058 -0.005660898420419274 -0.007038989923358313)
(-0.9265269806910138 -0.003470163286615559 -0.06333150021972984)
(-0.989952453323647 -0.003312196072503402 -0.003033011890498027)
(-0.9863144047901223 -0.009914249657195817 -0.0002558925864169871)
(-0.9791320696928451 -0.03772520475038803 -0.02547969548836489)
(-0.9340192886733065 -0.01944582231342894 -0.06561049170480873)
(-0.9981485625383689 -0.0002730099804892813 -0.0002996624417174636)
(-0.9980397848461394 -4.091915586129218e-05 -2.990891623108712e-05)
(-0.9980908525859007 -0.0002802731235690843 -2.929184854041382e-05)
(-0.9984472849428482 -2.415604445625863e-05 -1.658873642879341e-05)
(-0.9984789589400049 -0.0002120964040669826 -1.700534066643008e-05)
(-0.9985133164864983 -0.0002156562040485494 -0.0002332112347976129)
(-0.9984865514223931 -2.501066156638124e-05 -0.0002304381774639129)
(-0.9983304747555179 -0.0005397926110252836 -0.0002744714208601274)
(-0.9981239480122033 -0.0003550770726908816 -2.887139791033178e-05)
(-0.9982666880955163 -0.0005533298609596275 -2.680723558537871e-05)
(-0.9985123413419885 -0.0002627785598997468 -1.61556495006688e-05)
(-0.998551627359088 -0.0003003086230335924 -0.0002324902400232667)
(-0.9984863574457672 -0.0005387326175105998 -1.322756494805166e-05)
(-0.9975596909288967 -0.001353826998451516 -0.001100138608599664)
(-0.9983270130696359 -0.0006096875910061505 -2.604344886359842e-05)
(-0.9986244726879552 -0.0004783832334924551 -4.376044179787498e-05)
(-0.9986136040642676 -0.0003903182562054112 -0.0002120666926695789)
(-0.9981860534137851 -0.0002674711077606145 -0.0003784441242376115)
(-0.99855769546773 -0.0002134331806639883 -0.0003205522598347022)
(-0.9985250909698007 -2.375092663051435e-05 -0.0002830281519894465)
(-0.9983632465851907 -0.0005312926658181055 -0.0003496732644942637)
(-0.9985958760469797 -0.0003061494678627144 -0.0003406589089912592)
(-0.9985449056001502 -0.000320259311581709 -0.0002503010975120004)
(-0.9987100598039489 -0.000487177346120845 -0.0002975290324562338)
(-0.9972009045014468 -6.406530124045245e-05 -4.72741748822662e-05)
(-0.997291498499965 -0.0004369458205990036 -4.602235253220653e-05)
(-0.9973090934600332 -6.207951274954387e-05 -0.0004808525313466883)
(-0.9979337023978696 -4.432742310237008e-05 -0.0003412083145552903)
(-0.9979899206083708 -0.000303006951891859 -0.0003331961446175734)
(-0.9978639770682914 -4.552954959646262e-05 -3.337081959974282e-05)
(-0.9979227151317192 -0.0003115120813281292 -3.261269824273259e-05)
(-0.9976866869022273 -0.0008275158838645125 -0.0004260870585029425)
(-0.997350028600917 -0.0005521419128757981 -4.521310099157271e-05)
(-0.9980267268766481 -0.0003835866294274672 -0.0003277933291094772)
(-0.9981876796490028 -0.0005994031960062615 -0.0003064366147542384)
(-0.9979608413534065 -0.0003944316360569476 -3.210800300111856e-05)
(-0.9981242549353111 -0.0006145881688450483 -2.990264619984606e-05)
(-0.9975960449623192 -0.000852525834449562 -4.181644494066295e-05)
(-0.9963056411382922 -0.0008711267753588244 -0.0007569291530886399)
(-0.9967274140079327 -0.00132066187519469 -0.000686849731009383)
(-0.9974836573705682 -0.0009259902006884418 -0.0004778359922968809)
(-0.9970953245371558 -0.0006216581999697226 -5.102876191299755e-05)
(-0.9961161536985198 -0.0009061471448500166 -7.504288994212031e-05)
(-0.9965634781213099 -0.001371887546095681 -6.799704710991484e-05)
(-0.9973792485028283 -0.0009557381089127134 -4.698777304104071e-05)
(-0.9982519127200518 -0.0006618122846738011 -0.0002985192964406486)
(-0.9981926907708668 -0.0006771077050379289 -2.905296015560425e-05)
(-0.9976967993174007 -0.0009346191975094614 -4.042577810232893e-05)
(-0.9975939309892217 -0.001013641518233378 -0.0004612161722505145)
(-0.9967429064417984 -0.001491227667068748 -6.514900970651518e-05)
(-0.9974949755044145 -0.001045769094418431 -4.533366223838663e-05)
(-0.9973784225849263 -6.080403977103408e-05 -0.0006054144770065909)
(-0.9979785532979382 -4.352781722342469e-05 -0.0004309198915292067)
(-0.9980335101986905 -0.0002972577535641767 -0.0004207041488876934)
(-0.9977447668313081 -0.0008114289374789261 -0.0005370703162122562)
(-0.9980700246686609 -0.0003763371018167691 -0.0004138537456523061)
(-0.9982269985981194 -0.0005900467943903948 -0.0003882130308474235)
(-0.9982900393690078 -0.0006520375349421269 -0.0003782662210208645)
(-0.9976572641253968 -0.0009929782428267321 -0.0005807563112973866)
(-0.9964316093546958 -0.001689247995905941 -7.403118722371404e-05)
(-0.9952494900469183 -0.002508664775719026 -0.0001112122976391027)
(-0.9955435756992358 -0.002388640926549914 -0.001110585264951474)
(-0.992824987280105 -0.004499465100888476 -0.0002038782817086668)
(-0.9947514882948449 -0.002884352151784161 -0.0001284674383023359)
(-0.995101381194086 -0.002736205813899911 -0.00127792028345729)
(-0.9957274513744483 -0.002313084745379162 -0.00138171173860207)
(-0.9938047453762192 -0.004030322397914449 -0.002457463097307007)
(-0.9953190330970839 -0.002643357387078088 -0.001585934396802467)
(-0.996327570157806 -0.0006743723019161183 -0.000968720528367134)
(-0.9971290074714257 -6.841555349050598e-05 -0.0006827371134756785)
(-0.9961744318281568 -9.94591793156672e-05 -0.001001237356518047)
(-0.9957681245109814 -0.00011350673244255 -0.001146822683777232)
(-0.9944678898355491 -0.001162357924025804 -0.001697924960034885)
(-0.9941679287945708 -0.0001729989814062902 -0.001772215134654727)
(-0.9912554647812027 -0.002152566866014239 -0.003230092962633834)
(-0.9938267288022467 -0.001346129443302376 -0.001977302810992349)
(-0.9934673539786829 -0.0002009124659256754 -0.002070179774509511)
(-0.996425719482393 -0.0008488267781240337 -0.0009478201260777426)
(-0.9968314602920353 -0.001287993489274167 -0.0008608734664261985)
(-0.9975504525716976 -0.0009068784305500003 -0.0006015247726528607)
(-0.9965361090808577 -0.001456643306711363 -0.0009766118510157211)
(-0.995426801505744 -0.002149800140221909 -0.001457867465933006)
(-0.9946581020998432 -0.001454303177256321 -0.001650618281577125)
(-0.9916525001957305 -0.002670113214530297 -0.003110186443558153)
(-0.99321599725471 -0.003805226462790833 -0.002637907711867308)
(-0.9949654587406338 -0.002465200333250601 -0.001679556576609753)
(-0.9940538610134657 -0.00168112283166263 -0.001918322068148521)
(-0.9962035453742333 -0.0006922298791341044 -0.0007737872778599134)
(-0.9969222212914023 -7.230144286349502e-05 -5.348534221701781e-05)
(-0.9970274713077161 -0.0004924267388708776 -5.199237484375386e-05)
(-0.9970483785323503 -6.993316393259867e-05 -0.0005429603322340075)
(-0.9960077652449568 -0.0007202824593641283 -7.673959241769405e-05)
(-0.9960442014162444 -0.0001021243607368888 -0.0008000233314117498)
(-0.9958385276148137 -0.0001063127640677066 -7.938116313402215e-05)
(-0.9955693202497997 -0.0008241076251089486 -8.812937418387556e-05)
(-0.9956137870208185 -0.000116761454161353 -0.0009181047805555936)
(-0.9942181178433783 -0.001203174467140768 -0.001368257978042355)
(-0.9939019537419039 -0.000179154878323975 -0.001428828979440718)
(-0.9953691441016392 -0.0001218910082911857 -9.136570627655134e-05)
(-0.9934748714268712 -0.0001889259739871968 -0.0001437280373915379)
(-0.9938169748830961 -0.001268149830805219 -0.0001375522479114708)
(-0.9906977313812426 -0.002258311197952325 -0.002640386947308664)
(-0.9890214945020241 -0.0003647836230003345 -0.0002868940752960165)
(-0.9897734678442072 -0.002427335325538576 -0.0002712851580311703)
(-0.9935247059308276 -0.001397179818955657 -0.001597978000187922)
(-0.9931443184473603 -0.0002086278299014118 -0.001673900826249993)
(-0.9926232497964745 -0.0002208595228453804 -0.0001690974878548003)
(-0.9930368353425328 -0.001478713413776889 -0.0001613588072946278)
(-0.9964145250616672 -0.001496066969303574 -0.0007805386248349081)
(-0.9956972159632738 -0.001035338461975905 -8.605466384244174e-05)
(-0.9962223047371029 -0.001558070833205238 -7.747824850128295e-05)
(-0.9949085557437209 -0.002335219986256284 -0.0001175409228469734)
(-0.9952275692910661 -0.002221386277883675 -0.001172573394915315)
(-0.9944185353329296 -0.001504888095680598 -0.001329669990939688)
(-0.9940339403082107 -0.001585453393916375 -0.0001336067477189961)
(-0.9928033765347279 -0.003978116600602211 -0.002148181153267628)
(-0.9902555899748474 -0.003009325076637629 -0.0002609741367718838)
(-0.9921245034075168 -0.004259471857895374 -0.000219611044195074)
(-0.9943465889924249 -0.00269473811811046 -0.0001363173318272151)
(-0.9947283227779328 -0.002553570218988472 -0.001354385571122344)
(-0.9937650487169339 -0.001744241002703823 -0.001549689674802792)
(-0.9932986847430963 -0.001845208911408321 -0.0001564024726006737)
(-0.9920013683553596 -0.005268090991327691 -0.0002401906222081388)
(-0.9879732181872742 -0.009148145549878674 -0.0002214954896498574)
(-0.9900735652069569 -0.007915626493824605 -0.004007344473492729)
(-0.9891881023909553 -0.008943703813896054 -0.004917174025842757)
(-0.9803995923325824 -0.01999127848750906 -0.0005173867131250782)
(-0.985005871766349 -0.01666476280796464 -0.009594733974948056)
(-0.9829020208556074 -0.03630511332385272 -0.02258525476984316)
(-0.979151174930482 -0.0222482513811 -0.0005814290308720559)
(-0.9843937712627047 -0.01831995744645675 -0.01063986310622673)
(-0.9697166093684101 -0.05053995085693141 -0.001419866680076325)
(-0.9688786059148828 -0.05746815398946701 -0.001626219704993432)
(-0.9729054168394067 -0.05289219581412987 -0.01571158214790485)
(-0.9863185827446025 -0.04486546037710133 -0.001010253576338096)
(-0.9881262423600798 -0.0418637558508653 -0.009891785673471622)
(-0.9607991568556453 -0.06115238030327538 -0.00189323018320256)
(-0.9659569561632906 -0.05604463235693068 -0.01820309555917754)
(-0.9301723173721568 -0.06453235190536699 -0.001153110468880426)
(-0.9406299628489687 -0.05838475104984606 -0.02849015825161907)
(-0.9796023940957025 -0.0418797013416731 -0.0286284016939977)
(-0.9690175279748896 -0.05296214910022511 -0.02204544820187061)
(-0.9444905398811058 -0.05638197373251208 -0.03078113673404996)
(-0.96478421450986 -0.04422788836929239 -0.04049357206599549)
(-0.9837465620268834 -0.0400403944084826 -0.02515089291630714)
(-0.9932231747981697 -0.03306471016065034 -0.01665077324850827)
(-0.9753055920295315 -0.05012494405873902 -0.01910143237304199)
(-0.989219286513228 -0.0400234293093762 -0.012149837947992)
(-0.993188560421023 -0.004673480032800565 -0.002868433017603983)
(-0.9911597944447613 -0.007584190028185657 -0.00479793475741936)
(-0.9898770208660477 -0.008650901221029262 -0.005360176886464023)
(-0.9860826873523321 -0.01586274238367108 -0.01031927992109968)
(-0.9854812087131277 -0.03333815036333497 -0.02338497995044093)
(-0.9856011529034487 -0.01738411869415438 -0.01140477501156303)
(-0.9830748972680581 -0.0380452094189241 -0.0292851125708375)
(-0.9919083950083207 -0.02752314830989819 -0.02800264961804558)
(-0.9853446609777133 -0.02810244014782202 -0.03747662389592285)
(-0.9707550549073147 -0.03983550474541485 -0.04086864477401048)
(-0.990118675698349 -0.002542639912791776 -0.003851038287068096)
(-0.9847334563063702 -0.004942778216475177 -0.006897530241516856)
(-0.9828482060328839 -0.0003599897499544071 -0.007596882733548359)
(-0.9815212686847637 -0.0003974183196102931 -0.008469307803199178)
(-0.9728228975349305 -0.01120617683596884 -0.01715679134796784)
(-0.9679665314341317 -0.0008323581577163785 -0.01960381505334925)
(-0.9375319074788931 -0.003166906697172824 -0.06388316168679878)
(-0.9414248373882915 -0.01754219081698273 -0.06056146851742544)
(-0.9707311441240841 -0.01249499756078074 -0.01946316471079574)
(-0.965255133675606 -0.0009297435650387194 -0.02236351876428527)
(-0.9905925133188989 -0.003144906656728093 -0.003696010335700849)
(-0.9924851332109655 -0.004434179145400254 -0.003095870300960126)
(-0.9895896470515684 -0.007248400589371365 -0.005242395772216793)
(-0.9852687411189233 -0.005471732110823641 -0.006717953673604965)
(-0.9888786288704499 -0.00850671236608538 -0.0056575531232434)
(-0.9846044816272381 -0.01590977348243519 -0.01110219614843953)
(-0.9842040825538549 -0.006026337100331081 -0.007454989796206258)
(-0.9740971692377934 -0.01230286187995274 -0.01651206435107316)
(-0.9553728490069663 -0.03042826867440756 -0.04908940596695333)
(-0.9839634495101637 -0.01748855451005504 -0.01231793918593051)
(-0.9721695544707313 -0.01370652763842238 -0.01869867194472871)
(-0.9521943680038911 -0.03269522517134823 -0.05526041057748586)
(-0.9763277960907207 -0.02355715628136056 -0.04996228638857934)
(-0.983015969657282 -0.0275562563918157 -0.04073653867484376)
(-0.9665893398851377 -0.03955175710675789 -0.04536472332721646)
(-0.9894186826422341 -0.002682362319108928 -0.00316580260797908)
(-0.9873836466345921 -0.0004501050312946337 -0.0003655410270555186)
(-0.9882498335246769 -0.002904015908098211 -0.0003280239102952868)
(-0.9839822241285356 -0.005127321260235276 -0.006320658399101884)
(-0.98200254179336 -0.0003734288387055931 -0.006969738627710545)
(-0.9785864727985502 -0.0004243402417282551 -0.0003555998891093442)
(-0.9810211410590121 -0.005840741248911903 -0.0003224867951517612)
(-0.9805531526016159 -0.0004130240554610512 -0.007787537280999867)
(-0.970560699243988 -0.0118471699433571 -0.0161034731177913)
(-0.9652644327539678 -0.0008806302460072553 -0.01843744339049311)
(-0.9766195513321714 -0.0004735940806089942 -0.0004013497796903103)
(-0.9533389530652281 -0.001081472189285572 -0.00103746815514295)
(-0.9793834516470099 -0.006487172284333093 -0.0003619186593635221)
(-0.9606041677620596 -0.01454782795351377 -0.0009005317711171626)
(-0.9363002270005499 -0.01840168172287225 -0.06049643061664085)
(-0.8672239302502202 -0.001614303734557946 -0.002307971146056056)
(-0.9680932378611052 -0.01325710977034343 -0.01835036505741784)
(-0.96208663643076 -0.0009871018048698366 -0.02112989937680489)
(-0.9478589105766991 -0.001225966713339066 -0.001209426327020736)
(-0.9562676755937297 -0.01650873386356734 -0.001044489344519838)
(-0.8750301323109119 -0.02714061261560021 -0.002184456805317655)
(-0.9919840840986507 -0.004653704419136256 -0.002531765101495619)
(-0.9888530420848292 -0.003589475317024534 -0.0003143995397930199)
(-0.9911489831027539 -0.005014058607235951 -0.0002605763269847597)
(-0.987126879923597 -0.009050231310099037 -0.0002342259430103325)
(-0.9882383127176183 -0.007830904430620483 -0.004542615721173886)
(-0.9845182297691639 -0.005667030360895931 -0.006144789787475726)
(-0.9816593672080531 -0.006451461701427443 -0.0003134439347472519)
(-0.9884684849552872 -0.008756694551083626 -0.005126392149719225)
(-0.9782266681496528 -0.02015780230998907 -0.0005605137228836952)
(-0.9834007563931965 -0.01673263962497195 -0.01033725323392328)
(-0.9833853076722348 -0.006253151144564367 -0.006840644783360942)
(-0.9719510827779212 -0.01300264095341687 -0.01548844052808373)
(-0.9801095763464069 -0.007158824722045528 -0.0003513109057245602)
(-0.9625193025097826 -0.01595073235445838 -0.0008640911296190033)
(-0.9478854605668079 -0.03261047877940243 -0.05016187325800404)
(-0.9766729384812879 -0.02251643609870246 -0.0006329496692953315)
(-0.982604818993181 -0.01845271237193294 -0.01151012757752323)
(-0.9628370027869843 -0.05325714100760669 -0.001630829726616829)
(-0.9696722777532019 -0.01453839886389278 -0.01761738367951115)
(-0.9584939131790479 -0.01808855430640663 -0.001000302640995912)
(-0.9283861797341465 -0.05856540231993991 -0.001270917419219684)
(-0.9245369956231603 -0.06408393667356853 -0.001493116653245073)
(-0.9363815598335274 -0.05762976439185589 -0.02975960295058352)
(-0.8902432558029146 -0.05338045411508907 -0.002036231559521871)
(-0.9081411340143228 -0.04787919541838249 -0.03993844400067678)
(-0.8652750331617957 -0.02909168043049911 -0.002436441727476768)
(-0.8870441135689522 -0.02632996281575659 -0.04769484459982312)
(-0.8861459763039145 -0.05079526864935097 -0.002100861278086319)
(-0.9047133014285507 -0.04560780663915524 -0.04118106023101677)
(-0.9445791086439591 -0.03305186512107963 -0.05695080911760233)
(-0.8924562650646535 -0.02560791861240318 -0.05202195400657039)
(-0.9093211073299033 -0.04426750780735061 -0.04493479769293489)
(-0.9466618384023056 -0.03468471380050896 -0.05520909259604556)
(-0.9388607151292042 -0.05616635952698456 -0.03266049458441705)
(-0.9589193078692287 -0.04403333196916393 -0.04526861426998153)
(-0.9125829164769528 -0.04646002705512444 -0.04358607641835864)
(-0.8633909072567263 -0.02572051548289208 -0.002467437253666521)
(-0.8854287657554605 -0.02330095952608741 -0.04830304860788861)
(-0.9330172762826541 -0.01724611821560737 -0.06644038379700137)
(-0.8909092306940987 -0.0226673620450951 -0.0526854589228543)
(-0.9337450128993378 -0.00351152294609322 -0.07478820986374461)
(-0.9396119622401287 -0.01850962155570992 -0.0654996008240194)
(-0.9986636253391833 -0.0001548775930769987 -3.842963858813731e-05)
(-0.9986860686575255 -0.0001535558836421605 -0.0001673019128498628)
(-0.9986675813587338 -5.201817368333588e-05 -0.0001684348862419603)
(-0.9988246165878707 -3.501107080882868e-05 -0.0001456455947330745)
(-0.9988353928913231 -0.0001331726447822299 -0.0001437886183755398)
(-0.9988093519368263 -3.443867344107242e-05 -2.380566446245361e-05)
(-0.9988201877781541 -0.0001350699382483611 -2.421321260819016e-05)
(-0.9987362359733961 -0.0002543888862519205 -0.0001685763832796087)
(-0.9987953812908522 -0.0003497261554197587 -3.881145422359022e-05)
(-0.9989212297807322 -0.0003712566640743481 -0.000191921116565021)
(-0.9988761593137039 -0.0001966452974370977 -0.0001420259943764287)
(-0.9988617554257232 -0.000198500415831098 -2.31330286568334e-05)
(-0.9988933247479479 -0.0002871686808938522 -2.370603765485816e-05)
(-0.9989101807719841 -0.0002827729020396556 -0.0001344866761399882)
(-0.9988389465146131 -0.0004067520640974638 -0.0001487600551824813)
(-0.9989664814600715 -0.0003423257766328493 -2.137274235250779e-05)
(-0.9989795680866047 -0.0003403368236958705 -0.0001316420600715796)
(-0.9988104998627473 -0.0003199858945635016 -0.0002486943413938738)
(-0.9989247712005707 -0.0001908504819578007 -0.0002072263549702172)
(-0.9989490149720831 -0.0002768987218990108 -0.0002021807867734126)
(-0.9990203812922616 -0.0003323900394477157 -0.0001929761554073575)
(-0.9987155135018386 -5.111617770363598e-05 -0.000275138866809238)
(-0.9988723777909795 -3.335553798383841e-05 -0.0002145020264954237)
(-0.9988824488372394 -0.0001312292773022667 -0.0002127114777918404)
(-0.9982324533406861 -0.0001091680493668373 -0.000199033945504774)
(-0.9981086637344992 -0.0001193486450044588 -0.0003054465013126996)
(-0.9980706048587247 -4.043135537958567e-05 -0.0002216831573864041)
(-0.9982511911567357 -3.619620358108474e-05 -0.0002763399562106653)
(-0.9982581220153113 -0.0001081270861920286 -0.0002755693945904574)
(-0.9980790018404792 -0.0001208327855742054 -0.0002209170762090638)
(-0.9982251601653234 -3.653352167931972e-05 -0.0001995845664443299)
(-0.9983271104511954 -0.0003793865638302719 -0.0001904125498974291)
(-0.998218271108999 -0.0004136233804147725 -0.0002880344051409969)
(-0.9981524450586926 -0.0003503844445572923 -0.0002136170583745052)
(-0.9983174544823001 -0.000313878058797452 -0.0002659850489319993)
(-0.9982962054976836 -0.0003176651860588285 -0.0001936708158792359)
(-0.9983427222509499 -0.0003732546817512477 -0.0002587407612743431)
(-0.9981915758684153 -0.0004196877011963812 -0.0002093665318804378)
(-0.9985128120070015 -0.0005920638533315646 -0.0001684725966200786)
(-0.9984453612580038 -0.0006506502966575357 -0.0002643751156749602)
(-0.9983534180753664 -0.0006024709548313376 -0.0001936897291672665)
(-0.9984832062775679 -0.0005397923740635129 -0.0002449362311315828)
(-0.9984647356079412 -0.0005293109164608323 -0.0001649390619136944)
(-0.9985234387136592 -0.0005902760510750602 -0.0002493229225253424)
(-0.9984268722911388 -0.0006560809720322309 -0.0001895704399809041)
(-0.9983304582067234 -0.000104685827732982 -0.000417593001008053)
(-0.9981473249279856 -0.000117289694346622 -0.0003861342679796516)
(-0.9981863494332726 -3.843193963003886e-05 -0.0004635253761998614)
(-0.9982856966445104 -3.571879495358723e-05 -0.0003501306839876276)
(-0.9982922086208083 -0.000106585901584402 -0.0003491572172867234)
(-0.9981937239019586 -0.0001146601063449175 -0.0004616716417281994)
(-0.9983251736495214 -3.516721522672772e-05 -0.0004191352411819752)
(-0.9984825275634582 -0.0003503058508431774 -0.0003852715934574895)
(-0.9982647224154996 -0.0003273876752657022 -0.0004454440274005936)
(-0.9982579953275748 -0.0004067706340567147 -0.0003614247384983624)
(-0.9983507312362335 -0.0003043951880271243 -0.00033415684284713)
(-0.998382796716012 -0.0003703788400736399 -0.0003133312732208246)
(-0.9983863329193586 -0.0002821727424326619 -0.0004048687534971549)
(-0.9983161732914475 -0.000396247731805279 -0.000435404785814685)
(-0.998575848782375 -0.0005851261816988848 -0.0003720348342940469)
(-0.998456059872661 -0.0005841179115069407 -0.0004113025505516201)
(-0.9984742994186031 -0.0006430266214853444 -0.000335691558150026)
(-0.9985230184867473 -0.0005340907934820105 -0.0002989053143035623)
(-0.9985582460001996 -0.0005888269365878754 -0.0003076396243278993)
(-0.9985469596995002 -0.0005371848028244015 -0.0003794737803980907)
(-0.9985037860433934 -0.000633896808059068 -0.0004008386287754827)
(-0.9975336552601735 -0.0002771771414235681 -0.0003059498011678303)
(-0.9973441824809257 -0.0004301624701432965 -0.0003397647183635638)
(-0.9973527679569354 -0.0003064433805268261 -0.0004745073339871451)
(-0.9976160712039511 -0.000377638754900897 -0.0004166977026486539)
(-0.9975716128689495 -0.0003832754707799083 -0.0003020883768807437)
(-0.9975788889466838 -0.0002730793878177233 -0.0004219944026784044)
(-0.9973003252520887 -0.0003112714689844044 -0.0003443155367799141)
(-0.997681665277353 -0.000580617329706439 -0.0002909278744469878)
(-0.9975195870690432 -0.0006406015338920632 -0.0004502960495034948)
(-0.9974013998013445 -0.0005436385022095877 -0.0003338297347965108)
(-0.9976646872455149 -0.00047771568546568 -0.0004097882041731214)
(-0.9976212236353269 -0.0004847770448398372 -0.0002970462802698137)
(-0.9974709452111198 -0.0006504357155033305 -0.00032662385293271)
(-0.9977239146107332 -0.0005722818755798452 -0.0004014184072576266)
(-0.9969711691497035 -0.0008236867977892918 -0.0004156528722805753)
(-0.9969458157228038 -0.0006783392447928723 -0.0005859030305883183)
(-0.9972915948304493 -0.0007191050555350136 -0.0005066322194938401)
(-0.9971550007460765 -0.0006115397750341765 -0.0003764097745440449)
(-0.9972353230845924 -0.0007308014844790323 -0.0003678401426048094)
(-0.9970365727255593 -0.0008096942347699108 -0.0005718830130030003)
(-0.9968780229572118 -0.0006901727521115248 -0.0004259137637032076)
(-0.9980091176941572 -0.0008917368981351132 -0.0002581963981321943)
(-0.9979542028284276 -0.0008147815490990345 -0.0003692430448501238)
(-0.9978855468713616 -0.0009779308682557584 -0.0003970713960130516)
(-0.9977403632914711 -0.0009209514557539921 -0.0002987339504830429)
(-0.997917024815426 -0.0008260268678921164 -0.0002673997193387614)
(-0.9978454060990145 -0.0009921819958582253 -0.0002877920029411729)
(-0.9980441750461679 -0.0008797041807868022 -0.0003565877092792735)
(-0.9972473521272593 -0.001388710829385901 -0.0004054715789909345)
(-0.997153606478603 -0.001275073882324094 -0.000582936794036503)
(-0.996820979643235 -0.00146344128369473 -0.0004793597775011794)
(-0.9970754238637209 -0.00153372680269826 -0.0006284221764112836)
(-0.9970883576011413 -0.001297639813770955 -0.0004238669129580112)
(-0.9973084323645185 -0.001364941018257278 -0.0005578020304646964)
(-0.9970047210475325 -0.001562132634351622 -0.0004573222865584852)
(-0.9977088462354595 -0.0002613062682007529 -0.0006345285968016928)
(-0.9974208048080397 -0.000300173621119775 -0.0005975003930010718)
(-0.9975430261537678 -0.0004045203189197538 -0.0007025614431422852)