/*--------------------------------*- C++ -*----------------------------------*\
  =========                 |
  \\      /  F ield         | OpenFOAM: The Open Source CFD Toolbox
   \\    /   O peration     | Website:  https://openfoam.org
    \\  /    A nd           | Version:  7
     \\/     M anipulation  |
\*---------------------------------------------------------------------------*/
FoamFile
{
    version     2.0;
    format      ascii;
    class       volScalarField;
    location    "0";
    object      mag(grad(Phi));
}
// * * * * * * * * * * * * * * * * * * * * * * * * * * * * * * * * * * * * * //

dimensions      [0 1 -1 0 0 0 0];

internalField   nonuniform List<scalar> 
12676
(
0.3333216133246745
0.999946419020534
0.9999078232660938
0.9998646437752318
0.999814461041114
0.9997541565960518
0.999679520182472
0.9995846445155037
0.9994609553655884
0.9992955959355959
0.9990758948316237
0.3333218787088292
0.9999476446215184
0.9999099874128885
0.9998679488689052
0.999819235272574
0.9997609121697768
0.9996890524638592
0.9995982017788794
0.9994805370696532
0.9993245223498091
0.9991188006078805
0.3333219168941096
0.9999478210475339
0.999910300227735
0.9998684295958243
0.9998199355098597
0.9997619133441233
0.9996904826316527
0.9996002655192966
0.9994835735019015
0.9993291327061304
0.9991249608088493
0.3333221759312086
0.9999490168274725
0.9999124095733174
0.9998716460048629
0.9998245718398798
0.9997684561071655
0.9996996838987712
0.9996132974249429
0.9995022836023375
0.9993564502142316
0.9991648860969964
0.9986454191975739
0.998705821474089
0.9988198421626706
0.9989104953207969
0.9988811161975352
0.9987425802137299
0.9981005772664088
0.9981801659236931
0.9983802364455642
0.9981395886541796
0.9982182285159797
0.9984191223834216
0.9973958455610631
0.9974518407415834
0.9972135176491491
0.9977833905019048
0.9968980570833611
0.9974626825923382
0.9975170313025616
0.9978385959632572
0.9969958743957806
0.9966129526799783
0.9934444106211306
0.9967268221382427
0.9972263440923487
0.9959489126898176
0.9906204944195273
0.9972889657047364
0.9960640713305543
0.9971488360357568
0.9958021785933577
0.9900107958127522
0.9959223087151701
0.9911351972674034
0.9927554784178749
0.9872943638356828
0.9893344001128647
0.9836828866515981
0.9832191365663515
0.9885660569703612
0.9828313067564454
0.928695411263415
0.9899626405301657
0.9863642648250059
0.9801897856316566
0.9365227750786319
0.9981486448567871
0.9980397861331225
0.9980908923673667
0.9984472853728662
0.998478981611522
0.9985133670091474
0.9984865783267545
0.9983306584174412
0.9981240115881156
0.9982668418082181
0.9985123760504104
0.9985516995821817
0.9984865028697774
0.9975612162261802
0.9983271995802583
0.9986245882296264
0.9986137028615465
0.9981861609892898
0.9985577697285709
0.9985251313638982
0.998363449188426
0.9985959810824515
0.9985449883288579
0.9987102229470263
0.997200907679949
0.997291595281948
0.9973092113136708
0.9979337617144508
0.9979900222290731
0.9978639786649778
0.9979227642855069
0.9976871210728654
0.9973501824610884
0.998026854421906
0.9981879066541782
0.9979609198170228
0.9981244445974436
0.9975964101145188
0.9963063095090712
0.9967285256002673
0.9974842016325133
0.9970955196352594
0.9961165686771888
0.9965644247233993
0.9973797075273039
0.9982521767361754
0.9981929208461168
0.9976972379010948
0.9975945525793598
0.9967440240836121
0.9974955247241424
0.9973786081833799
0.9979786472812279
0.9980336431371802
0.9977452413320278
0.9980701814234499
0.9982272484734058
0.9982903239747725
0.9976579273207102
0.9964330439927197
0.9952526579747392
0.9955470607264766
0.9928352039086289
0.9947556782728245
0.9951059635822129
0.9957310966867622
0.993815956078286
0.995323806693832
0.9963282693239319
0.9971292435545177
0.996174939956092
0.9957687913758714
0.994470018622524
0.9941695234308976
0.9912630647326965
0.9938296074643072
0.9934695312044166
0.9964265318205328
0.9968326641208669
0.9975510461558038
0.996537652215131
0.9954301905076754
0.9946605348616707
0.9916609722625648
0.9932267895642956
0.9949699303043972
0.9940571335337376
0.9962040863925168
0.9969222253479777
0.9970275942668582
0.9970485288242287
0.9960080286443675
0.996044527941216
0.995838536453482
0.9955696652383561
0.9956142171823186
0.9942197873743625
0.9939029969271129
0.995369155758174
0.9934748997873125
0.9938177935066381
0.9907038238427461
0.9890216033850421
0.9897764814344536
0.9935269734335718
0.9931457510022481
0.9926232887704195
0.9930379494143905
0.9964159539122149
0.9956977579607932
0.9962235261442611
0.9949113032629137
0.9952307391566871
0.994420563003478
0.9940352136609119
0.9928136706113146
0.9902601969287416
0.9921336712314177
0.9943502497796289
0.9947325224489937
0.9937677877482918
0.9933004109382142
0.9920153856131132
0.9880155957688994
0.9901133169865626
0.9892407544931265
0.9806035282164092
0.9851935549188703
0.9838315595611443
0.9794040770371429
0.9846217164112161
0.9710337816672373
0.9705828075507277
0.9744687723611724
0.987338987792166
0.9890621276332453
0.962745146833679
0.9677526515924456
0.9324088663840986
0.9428707203437845
0.9809150550817602
0.9707141497610415
0.946672480462761
0.9666459621059191
0.9848822766699517
0.9939128725718048
0.9767795926306346
0.9901031715258694
0.9932036980774777
0.9912004228409619
0.9899293338551151
0.9862642548678411
0.9863222101745545
0.9858204243575217
0.9842465694208029
0.9926852150437733
0.98645747267593
0.9724312264587609
0.9901294296607221
0.984770017287803
0.9828776314078704
0.9815578882554682
0.973038706248058
0.9681653827530566
0.9397112137173538
0.943533859688786
0.9710066394814491
0.965514611221254
0.990604400542282
0.9924998670037199
0.9896300781484889
0.9853068369700482
0.9889314004011212
0.9847955954877251
0.9842507656727444
0.9743147868100194
0.9571169886343037
0.9841959414347226
0.9724459634716057
0.9543567494310118
0.9778891220852203
0.9842455026317291
0.968461280378505
0.9894273833562812
0.9873838168899705
0.988254154744432
0.9840158827716368
0.982027346255824
0.9785866294101047
0.9810385810256372
0.9805841633448611
0.9707665776071512
0.9654409044412025
0.9766197486316005
0.9533401309888168
0.9794050029223731
0.9607147429791401
0.9384330317549917
0.8672285038592753
0.9683578904772769
0.9623191482124319
0.9478604749993902
0.9564107363665485
0.8754536636263145
0.9919982307970054
0.9888596068302836
0.9911616999205337
0.9871683942551313
0.9882797787796516
0.9845537153565832
0.9816806165105332
0.9885205639468178
0.9784344972703962
0.9835974215643067
0.9834289804891376
0.972161441209704
0.9801357833671245
0.962651847876501
0.9497718163900861
0.976932658519278
0.9828454690028102
0.9643101558159203
0.9699412680633397
0.9586651021099879
0.9302324549817351
0.9267565142003705
0.9386251910682492
0.8918445344470475
0.91027897699108
0.8657673735661955
0.888715547608237
0.8876031006338854
0.9067977224993085
0.9468714342157271
0.8943378747696378
0.9115062394338617
0.9489044786299277
0.9411061631197269
0.9609965768756055
0.9148037273738509
0.8637774550756111
0.8870514181527982
0.9355388773506433
0.8927535069771195
0.9367418834675905
0.9420740116269987
0.9986636380881736
0.9986860944761188
0.9986675969175651
0.9988246278202803
0.9988354121187754
0.9988093528142369
0.9988201972043591
0.9987362825981689
0.9987954432728714
0.9989213172076548
0.9988761887671825
0.9988617754172543
0.9988933663078541
0.9989102298490582
0.9988390404120264
0.9989665403427919
0.9989796347340044
0.998810582080466
0.9989248109266188
0.9989490738089043
0.9990204552261533
0.9987155527093292
0.9988724013794337
0.9988824801058311
0.9982324791523964
0.9981087176072213
0.9980706302968629
0.9982512300617407
0.9982581659067429
0.9980790336039546
0.9982251807862708
0.9983272006977157
0.998218398359777
0.9981525294152959
0.9983175392586777
0.9982962748255794
0.9983428255550677
0.9981916860537267
0.9985130017504789
0.9984456082619804
0.9983536186490887
0.9984833822292171
0.9984648895317133
0.9985236443110834
0.9984271058481233
0.9983305510332153
0.9981474065073951
0.9981864577961933
0.998285758684528
0.9982922753704588
0.9981938372505134
0.9983252622534554
0.9984826633436866
0.9982648754826375
0.9982581436310042
0.9983508335636067
0.9983829145851094
0.9983864548862472
0.9983163468785192
0.998576089516471
0.9984563154489842
0.9984745629066012
0.9985232060624568
0.9985584669984502
0.9985471762981345
0.9985040677131768
0.9975337406870863
0.9973443331208939
0.9973529279127404
0.997616229705798
0.9975717322375525
0.9975790155790809
0.9973004332652413
0.9976818766451077
0.9975198943997318
0.9974016038240535
0.9976648857784559
0.9976213856433325
0.9974712107575466
0.99772415948971
0.9969715960562657
0.9969462186666335
0.997291982775229
0.9971552593142768
0.9972356587009972
0.9970370655132456
0.9968783528575798
0.998009549483744
0.9979546037532576
0.997886105058705
0.997740833049622
0.9979174025135887
0.9978459408757732
0.9980446264460452
0.9972484014776856
0.9971545920979333
0.996822169147078
0.9970768015079661
0.9970892920877186
0.9973095224013766
0.9970060497274372
0.9977090822298842
0.9974210289415599
0.9975433555777344
0.997674096855681
0.9976378669459965
0.9977441255295784
0.9975032260410944
0.997845747548864
0.9975830696746552
0.9975957109347383
0.9977214850065903
0.9977791822596807
0.9977899640125312
0.9976593105086372
0.9981452615675435
0.9979052514117139
0.9980028568557354
0.9979382398729707
0.9980901658891176
0.9980611142294702
0.9980012635599448
0.9974833870575595
0.9972389364922936
0.9971129908510206
0.9971680472221435
0.9973885081457816
0.9972773693478219
0.9973401878548067
0.9964400655560166
0.9965244071385165
0.9962956058808506
0.9968198523653521
0.9967376569920054
0.9965359159751015
0.9961918586554905
0.9943778300089616
0.9931477397135678
0.9940817662318601
0.9940611845360374
0.9945977352265918
0.9938154576232204
0.9938185727123863
0.9968054717056195
0.9968627611202611
0.9964286833772846
0.9969256182194832
0.9970519772096462
0.996658946324202
0.9965870420555288
0.9970165608858208
0.9969614734801819
0.9971782740942985
0.9973196742230309
0.9972735046627518
0.9970699115908062
0.9969057699163303
0.9956263195799273
0.9958599828950756
0.9955186417820042
0.9961236330551895
0.9960392553726776
0.9957254534415174
0.9954137680651947
0.9923664005222156
0.9907312834103413
0.9913187273420239
0.9917184409995604
0.9918088485365092
0.9914195232766462
0.9922833732933478
0.9972234159785632
0.9970339386276744
0.9973649335237788
0.9973798229804642
0.997121704360079
0.9974527938735801
0.9971393268284762
0.9960077107038249
0.9962027371022915
0.9956542042033492
0.9962329306273877
0.9958536406445592
0.9963645914317955
0.9958170653970911
0.9967421338036299
0.9968711979195932
0.9970889802134061
0.9970991813948511
0.9970380953638451
0.9968013439173883
0.9968135224326322
0.9950945270343554
0.9956878446713799
0.9957093872967486
0.9953443378230098
0.9952345753123858
0.9955920221283959
0.9952081376709336
0.9909411128751043
0.9901300915405284
0.9895230257219242
0.991229335522392
0.9913259703798016
0.9896473170093556
0.9908403900978615
0.9955311729841746
0.996066914695954
0.9958118779432313
0.9954861822830233
0.9959611473336083
0.9956565295030909
0.9953549295607221
0.9922416143578049
0.9916400740175847
0.990711110241977
0.9921451854397244
0.9925616831520091
0.9918030425640231
0.9912477997463516
0.9925149098999394
0.9923948775114702
0.9919871099798898
0.9935156540867836
0.9931989761603457
0.992898381395645
0.9915450272435798
0.9889873102222526
0.9877974785630408
0.9847983615308542
0.9895380509254046
0.9898596073413035
0.9854619117655126
0.9885143245687044
0.9821892292582817
0.9768237649427491
0.97450840792465
0.9838441804347849
0.9508809122300785
0.967565567362496
0.964376433688249
0.9564947593227543
0.9735938198042411
0.9844371010265559
0.9803178333401139
0.9791941998348197
0.9904293216881402
0.9889666273561876
0.9858438398988818
0.9927654248943076
0.9884725910334435
0.9882827900033798
0.9841113104868053
0.991728236818135
0.9892718610844317
0.9894715334445305
0.9902068083027181
0.9878598830060391
0.9903320230321497
0.9880380814799298
0.989004795987657
0.98380477651242
0.9823452748491901
0.9798274397505959
0.9856160336592801
0.9847637318008329
0.9838456205249163
0.9779319883545496
0.9892245812642451
0.9851008307233889
0.9724365834949893
0.9856127032153856
0.9825037956272991
0.9874386949458018
0.974561120560009
0.9737720908733938
0.968427024651585
0.9768415237903313
0.9606025169481954
0.9863095050779002
0.9887155830030852
0.9879347623935425
0.9868947134921591
0.9881003787416891
0.9870792253836272
0.9860520473166695
0.9729362419712925
0.981417167225347
0.9785570517019702
0.9807174668120577
0.9765258856966086
0.9791032412328617
0.9753198330899125
0.9374853343582674
0.8989865754750048
0.8995735935554889
0.932356367027504
0.9469076981722979
0.9493747197340893
0.9889499714633088
0.9905701799121518
0.9894283417967797
0.9887902072766026
0.9900944765618305
0.9893021462387612
0.9879626600033196
0.9803481605838086
0.9868816435856266
0.9834761622046163
0.9835790685073651
0.984205147467032
0.9841934881947529
0.9794140029337514
0.9711572557355811
0.9524945766205271
0.9674203819927774
0.9620439793109505
0.9803272656243849
0.974244937446347
0.9713094940259773
0.8914455156394376
0.9262017668567673
0.9141201416304372
0.9071630640576318
0.8446718428956993
0.8797763947958539
0.8590187521007281
0.8675346325684874
0.9132548694223674
0.9402378025538017
0.9316987201054536
0.9186771961655982
0.9233786757788116
0.9079308189624604
0.9357601170129448
0.9321739644669826
0.9309196371076154
0.9457368381557448
0.913244798758363
0.8165370470746388
0.8061604552220523
0.8894205386358528
0.8587821677912553
0.9982472713111573
0.9981249181921921
0.9981202935576344
0.9982913643175243
0.9982683160297505
0.9982722997668534
0.9980957432155664
0.9982144624287849
0.9980501729489242
0.998048421594808
0.9981977648391422
0.9980587325402662
0.9982052657038625
0.998207030818888
0.9982295496237854
0.9981008010011619
0.9980656004585776
0.9982424261459636
0.9982511845204688
0.998075758440722
0.9982204788350697
0.9983547312741863
0.9983400430215713
0.998451171256601
0.9984537904015162
0.9984576903475064
0.9983462590070336
0.9983485952013109
0.9983691374473279
0.9983790123928545
0.9984672613490519
0.9984853635030715
0.9984738404887737
0.9983870539321695
0.9983605960365909
0.9983860826612063
0.9984191970075316
0.9985051246969953
0.9985071873909663
0.9984925601156124
0.9984041918545975
0.9984074126253555
0.9983716448911707
0.9983874441168062
0.9984724904821766
0.9984901405917282
0.9984765009945009
0.9983929630586649
0.9983654442420228
0.9983689162069388
0.9982669697462718
0.9982956500095738
0.9984894993489803
0.9984197231423897
0.9983880903346996
0.9982395870815209
0.9983122558561821
0.9981336026524054
0.9981641775926537
0.998271570758151
0.9982799239248488
0.998173358020473
0.9983049986024307
0.9983535336151166
0.9982760538725729
0.9982120320470222
0.9983955402260327
0.9984026636497099
0.9982210724418684
0.9983467991220233
0.9984354050919447
0.9984074552930132
0.998519337695995
0.9985265231791857
0.9985296603083479
0.9984155754301074
0.9984310263987894
0.9984513327402854
0.9984451502159486
0.9985396874098966
0.9985187917506549
0.9985543180510686
0.9984327091240087
0.9984256024904397
0.998470488454177
0.9984181177894209
0.9985801752089444
0.9984510018297346
0.9985842550717519
0.9983953614369446
0.9984686681708853
0.9984858044801943
0.9978940265449299
0.9985824614318749
0.9985170838802485
0.9986080857985731
0.9984110869300934
0.9984354153863909
0.9984917934601308
0.9983363629544835
0.9983966789975348
0.9984395270119157
0.9984459343894797
0.9984062188198687
0.9984837546363369
0.9983421372222075
0.9981630493263943
0.9982310526498572
0.9983231995538236
0.9983056208531119
0.9983537967054987
0.9982088278757137
0.9984646992796384
0.9984512897714537
0.9985471231983239
0.9985265401862429
0.9985659545791263
0.9984411378297114
0.998434755792732
0.998452600221022
0.9984210149339264
0.9985294395809404
0.9985444516946108
0.9985442752116458
0.9984266340744147
0.9984511771636664
0.9984557732113453
0.9982998937000611
0.9984064463346147
0.9984597334905959
0.9984167837037552
0.9984850923615138
0.9983567693805748
0.9978418310769765
0.998476940315429
0.9985792389627838
0.9985677628264398
0.9974714675906513
0.9984379857652589
0.9984255703046635
0.9974769305845609
0.9972162599413428
0.9972193218497378
0.997447950070161
0.9972345553527476
0.9974611932372459
0.9974637846243353
0.9975029959402341
0.9973093137553731
0.9972466788664788
0.9975262581520529
0.9975415276974313
0.9972647402806167
0.9974874492314083
0.9975080474428656
0.997323871891634
0.9972557075304554
0.997541177043666
0.9975538586251358
0.9972707078222188
0.997495091493524
0.9977196543324645
0.9977482603530832
0.9979432424380456
0.9978992776161182
0.9979089802829746
0.99775923879054
0.997708444734464
0.9977418996810257
0.9978133496105412
0.997962086939745
0.9979567483063139
0.9979282435988964
0.997774829332675
0.9977810407764348
0.9976927830154475
0.9976677403497123
0.9978758414423913
0.9978739108246815
0.9978856964020512
0.9976791951679513
0.9976814114123161
0.9977153424494823
0.9977355261586544
0.9979341781661597
0.9978936212356432
0.9979052553015246
0.9977487187235314
0.9977019168800625
0.9977522118052834
0.9975987838583592
0.9978703486360044
0.9976423045935716
0.9975519162786854
0.9978311857786408
0.9977930445392112
0.9976531944829847
0.997367457194811
0.9975769574765793
0.9974213828067106
0.9975918724854844
0.997438121503763
0.9976387027940725
0.9978706708999675
0.9978557303431539
0.9980720948632105
0.997994157670653
0.9980400095992364
0.9978179604849362
0.997907548283298
0.9979322709592299
0.9980363610559096
0.9981258343316542
0.9981560256893346
0.9980942501181056
0.9980017234215927
0.9979680827135733
0.9978457390744253
0.9977794958438589
0.9979720671551163
0.9980075459310143
0.9980184070447531
0.9977923988701103
0.9978331667309707
0.9979080226248065
0.9981349262319065
0.9980623113131304
0.9979664318192393
0.9980729605700167
0.9979782573428552
0.9978958018494269
0.9977244940566153
0.9976118297644203
0.9975039370224166
0.9977911250379305
0.9975200553382547
0.9978045766306308
0.9977104881797572
0.996674718045875
0.9966455515800985
0.9964296244281291
0.9962128933630049
0.9967511711579747
0.9965661228562258
0.9963399218929848
0.9967997955924995
0.9965713470753946
0.9970081700466593
0.9966476946197708
0.9969388642808711
0.9968728474926049
0.996485874753705
0.9970792346463918
0.9973827593193982
0.9972588996717735
0.9974326042848236
0.9973286705231835
0.9971992252374234
0.9971419531657789
0.9969269711045988
0.9971156010522703
0.9968086405838213
0.9971779087081019
0.9971973204888254
0.9968320880616195
0.9969043566790901
0.9966225297410292
0.9961490089115486
0.996484384014136
0.9962474501398461
0.9965118935528423
0.9962785901271725
0.9965960584701645
0.9967499398824871
0.9965924596204834
0.9963977912599584
0.996867599250988
0.9968915774754886
0.9964274504058044
0.9967246550890685
0.9970364915841428
0.997397487288722
0.997273215764901
0.9971379635785542
0.9972918556085905
0.9971585647060697
0.9970148329027416
0.9981588365174985
0.9981102784738045
0.9983224036617273
0.9982229403981845
0.9982963296719108
0.9980775305139696
0.9981894167234531
0.9981377019182084
0.9982030388686617
0.9982671923175624
0.9980438962451756
0.9982770041779861
0.9980552070004689
0.9981269538503598
0.9979856302050765
0.9977118878034852
0.9978792745731533
0.9978047903241347
0.9978920888739555
0.997818620264173
0.9979735076429497
0.9974675325392733
0.9973858016921804
0.9977120274769575
0.9975456506586582
0.9973293970906467
0.9976659596175829
0.9975205131341192
0.9972067264846304
0.9967703298985288
0.9969332273805396
0.9970221706973421
0.997044752003645
0.9969577376071336
0.9971856021735498
0.9974314537296458
0.997512372748934
0.9972715096501454
0.9976187521727548
0.9972909742922179
0.9976346181142927
0.9974131798325587
0.9976854111598987
0.9973928327841819
0.997462359639793
0.9976010543771278
0.9976133885485743
0.9974760621624627
0.9976734879613461
0.9978732225167551
0.9978000595841228
0.9979878650645538
0.9980330573695408
0.9980419924606706
0.9978107549894158
0.997862846990041
0.9978938839954109
0.9978636008459649
0.9980062447999314
0.9980867434527829
0.9980598990323172
0.9978320222881598
0.9979246108781833
0.9979102459640962
0.9976595841010071
0.9978153768281711
0.9979211207488224
0.9978460958545106
0.99798242174501
0.9977329537000014
0.9980147279356153
0.9979051269446778
0.9981231560543112
0.998115193505085
0.9981693586606452
0.9979558743029346
0.9979651151814981
0.9980714686484179
0.9980809818014253
0.998166783601757
0.9982750205238439
0.9982191635084198
0.9980146847918411
0.9981348446946081
0.9982769740744929
0.9981527017522285
0.9983346655108277
0.998356748661501
0.9983971452419309
0.9982291156245749
0.9982036411373306
0.9976716918885274
0.9974587895696926
0.9977343376994056
0.9977717614030114
0.9975891040400431
0.997843839805013
0.9975466140070631
0.9963743902271749
0.9964638202536463
0.9960845694557793
0.9966528901392406
0.9966814393952711
0.9961207378617464
0.996341001152581
0.9960327128335041
0.9956931970753985
0.995303335756058
0.9956057942258965
0.9956520577256915
0.9957359035304426
0.9959934972940401
0.9961097541132535
0.9959418659468833
0.9954027197992843
0.9958747287514669
0.9957428217412019
0.9962219677226569
0.995819773830915
0.9942252569699619
0.992940990601506
0.9935415458064338
0.9935573646676795
0.9936447817994079
0.9936353710042524
0.9941471458133253
0.9947539192658766
0.9941938261337523
0.994816130410129
0.9951727467455843
0.9952275771724349
0.9942663295538814
0.994688627553696
0.9948816259654999
0.9946127815744317
0.9949344980492637
0.9954907024099042
0.9953349887648115
0.9950662506966522
0.9944080643041846
0.9965360815255446
0.9960980294494132
0.9959484504523498
0.9960430575306176
0.9963656049777858
0.9962420739965467
0.9962831976584232
0.9951983260589868
0.9942455508248312
0.9944119871449859
0.9943706738732042
0.9948750944576696
0.994730773190875
0.9947945096120415
0.9955741844699558
0.9948718239612354
0.995579952937942
0.9956887315934744
0.9953001429627416
0.9959218648321356
0.9951749094742509
0.9967284379163524
0.996663798200951
0.9962525124644849
0.9964766121265055
0.9964044887504095
0.9967903422769863
0.9965989766657454
0.9969803671049278
0.99714569354861
0.9972264164795952
0.9968488798322762
0.9972422140377926
0.9968679754167187
0.9969620819800605
0.9966863989744484
0.9962010010695669
0.9965326901649011
0.9963306542300069
0.9963554574610317
0.9965549495068882
0.9966651472255966
0.9955587627711808
0.9957994427159517
0.9953060615897552
0.9959527545137731
0.9959818266074799
0.9953422825868693
0.9955245372573742
0.9951581244716532
0.9950290275358695
0.9943220313432031
0.9947644285727332
0.9946257650580987
0.9952751053497609
0.9949047587196584
0.9950782976046775
0.9947769219570299
0.9942208689095455
0.9944829161934139
0.9945310054328076
0.9948199361965553
0.9950378225188851
0.992529114557703
0.9909482083593666
0.9919015038261927
0.9922445034759191
0.9927665983415509
0.9919863151993155
0.9916145450773802
0.993324715165685
0.9930934496602535
0.9936524526358861
0.994183872184762
0.9940187474160526
0.9935222736793154
0.9928802119295892
0.9931893323265157
0.9926595516359945
0.9935311551372973
0.993848327649775
0.9939057364804967
0.9927339448678093
0.9931204653762049
0.9969680527949965
0.9967480050472155
0.996545101982671
0.9965701870246655
0.9968498113546292
0.9968707776589012
0.9966831403841542
0.997080189792125
0.9966814186823095
0.99709764937229
0.9969572727098288
0.9969671284827328
0.9972050043221137
0.9968130556814192
0.9973205469585581
0.9974528210207264
0.9973360879889248
0.9976315944848893
0.997223054586645
0.9975372183797612
0.9974289159199656
0.9961839956234613
0.9963617507135348
0.9966828387934884
0.9962086590904582
0.9963784944533129
0.9965156458605231
0.9960033068380428
0.9958136209835068
0.995841197054336
0.9956655204320837
0.9951469801782039
0.9960406876311809
0.99539947266566
0.9956005236385614
0.9956071064181694
0.9951893489833605
0.9948882297795932
0.9949430243399169
0.9954260835526912
0.9951565986545209
0.9953814763460488
0.9934302062258452
0.9922673727455305
0.9921321583617622
0.9925738165669368
0.993070289923677
0.99296383278822
0.9926996856607475
0.99383493479943
0.9937037929463156
0.9926600316910095
0.9938755259400569
0.9942724791217897
0.99340217324061
0.9931834535649026
0.9944166636123348
0.9944540475094771
0.9952487723003228
0.9946352781882456
0.9947859631071044
0.9949359039082893
0.9940569173138565
0.9940766777079594
0.9933665455869225
0.9943282597575169
0.9943960791475466
0.9937755581262421
0.9946491288589278
0.993690946999619
0.9964070711716898
0.9965581705826612
0.9961075699995405
0.9961252591984646
0.9964762646457564
0.9964908936236575
0.9960263394053324
0.9966525601625087
0.9969400819463272
0.9969437275285777
0.9966066718801191
0.9969614366136662
0.9966275230353485
0.9966318933058922
0.9966934569512043
0.9970482301154271
0.9969754400933735
0.9967295788749029
0.996996503609845
0.9967537180207849
0.9966687836138691
0.9967019526216686
0.997065523952285
0.9969861822608157
0.9967546107517994
0.9970036011693618
0.9967743859481549
0.996681648272258
0.9963498276395747
0.9960415544021786
0.9963919618664888
0.9959243046079944
0.9964203359690252
0.9959586717820688
0.9963207845607827
0.9963600638796337
0.9960716520062176
0.9964220852006775
0.9959431357551202
0.9964451927823332
0.9959710917600039
0.9963362941558905
0.9963019239990494
0.996247969705045
0.9958673553168371
0.9958737689545231
0.9959022966756323
0.9962724248643898
0.9962776999811411
0.9949983527479646
0.9956094980385869
0.9954706913435316
0.9950670101355308
0.9955115882237366
0.9951146168145956
0.9949493926934088
0.9950170657363518
0.9956462079217779
0.9951218253924676
0.9954937300824035
0.9951597447751096
0.9955267716218394
0.9949778117000253
0.9945221647146824
0.9948208053239614
0.9940637837259333
0.9940229421234829
0.9946903018362813
0.9938606010073556
0.9946575878411573
0.9944297106462671
0.994556027399886
0.9939571286748474
0.9936933163649524
0.9946012095823403
0.9937496268076342
0.9943828250843384
0.9949190795056108
0.9954032887711922
0.9954111476074802
0.9948285551219136
0.9954449121686232
0.994869195933224
0.9948789069767326
0.9943116780718997
0.9935487083594975
0.9942028616898295
0.99353345461674
0.9936064985251212
0.9942515134061806
0.9942636233390091
0.9944064443391021
0.9944880031624527
0.9938871281713135
0.9936488718371226
0.9937204230581028
0.9945452612055773
0.9943474563994033
0.9911406191342577
0.9903642178386196
0.9902541561073109
0.991792485684642
0.9915160073993394
0.9914315838586316
0.9898947046781141
0.9906748347949719
0.989202008521643
0.989156969465548
0.9904352617684702
0.98931261338286
0.9905408610408404
0.990573929769398
0.9908793868527346
0.9899389648483404
0.9893980006427469
0.9910507802876588
0.9911799586251976
0.989565938910323
0.9907459554923485
0.9921947160502108
0.9927249451122936
0.9933394104200139
0.9932879321745329
0.992498022467088
0.9930921336316227
0.9924324654319527
0.9920318562135757
0.9922632774210757
0.9932109813615858
0.9928901290568066
0.9923423775478123
0.992958132669688
0.991949301644857
0.9918169555573777
0.9916212912586575
0.9927135521283622
0.9926941188459482
0.9927833695677331
0.9917073864255224
0.9917324898971435
0.9919843461561036
0.9921253757906139
0.9931225281580768
0.9928336877452736
0.9929210951450693
0.9922293983131696
0.9918767819320755
0.9957325609398943
0.9962326748231191
0.9963212695751358
0.9960658282396353
0.9961322024961669
0.9959544094843177
0.9958512449133942
0.9954451374363595
0.9957362197923673
0.9958518782395442
0.9952189593144625
0.9958887016559632
0.9952648231248697
0.9954013525434289
0.995651132327215
0.9962564568870541
0.9960284407562493
0.9958391248412726
0.9960634040391176
0.9958779956908049
0.9956097004221639
0.9951826924191303
0.9954044050294255
0.9949663242027804
0.9945894076009969
0.9954505247739434
0.9946485868797825
0.9951333220766526
0.9952795911179885
0.9956728095859514
0.9950741836009772
0.9949327962432024
0.9955410692711945
0.9954205124021132
0.9947645578457294
0.9950413610872846
0.9949891226429841
0.9946604041173256
0.9942318545516783
0.9951907502519403
0.9948322232958074
0.9944813399002262
0.9949386002626288
0.9946692375357845
0.9942948177131595
0.9941016728709066
0.9947242646677803
0.9943578506516381
0.9948862309819473
0.9927325908233084
0.9922057860911172
0.9924832074693407
0.9935338883813147
0.9932622920586274
0.9930292491606874
0.9918427189371868
0.9920182115386611
0.9904136207902223
0.9908282293665055
0.9914416647409224
0.9915643463790783
0.9909709817208361
0.9919033737640393
0.9925259079578422
0.9922523318233435
0.9914571457925431
0.9929764566698529
0.993073370128906
0.9915882309691713
0.9924197531832023
0.9933354209903692
0.9937098465389118
0.9944162740553427
0.9939660230512022
0.9937895707882309
0.9940374135566227
0.9932487004898929
0.9935046977712082
0.9941700095920718
0.9945454862714203
0.9943790717733662
0.9939452999398326
0.9937487255205476
0.994177063500288
0.9930980918609571
0.9930154705795563
0.9940545649833427
0.9935393325000559
0.9933601936682774
0.9927369516323031
0.9938386126509285
0.9929161239303921
0.9924443971936464
0.9936128506665408
0.9933812574801775
0.9925435352667594
0.993689238414027
0.9928228556922042
0.9922460546417241
0.9921428499877007
0.9910881309331314
0.9928648248114221
0.9929777963130619
0.991235216792769
0.9921097651976778
0.9914351873872269
0.9902425193169739
0.9889614121924396
0.9903034477081418
0.9906355709033856
0.9901881608360003
0.9912652734879699
0.99176515355744
0.991126483681936
0.9894717774473327
0.9917096110020626
0.9910343893117484
0.9922339335846493
0.9905798373175618
0.9892925824675676
0.9881908894305763
0.9875965453868215
0.990155395050813
0.9901507143225134
0.990541975163799
0.9858813627373391
0.988517414732857
0.983842775424936
0.9817140673032129
0.9864274013239748
0.9871723020047248
0.9845918279922431
0.9879859369597817
0.9888578845841089
0.9870001817937559
0.9824124955360215
0.9895342055355251
0.9876431273735617
0.9902468448868683
0.9850667172157799
0.9924009638444721
0.9765012790672944
0.9887134399456353
0.9868825943973349