/*--------------------------------*- C++ -*----------------------------------*\
  =========                 |
  \\      /  F ield         | OpenFOAM: The Open Source CFD Toolbox
   \\    /   O peration     | Website:  https://openfoam.org
    \\  /    A nd           | Version:  7
     \\/     M anipulation  |
\*---------------------------------------------------------------------------*/
FoamFile
{
    version     2.0;
    format      ascii;
    class       volScalarField;
    location    "0";
    object      p;
}
// * * * * * * * * * * * * * * * * * * * * * * * * * * * * * * * * * * * * * //

dimensions      [0 2 -2 0 0 0 0];

internalField   nonuniform List<scalar> 
12676
(
3.209649446359253e-05
3.000609630590201e-05
2.707181270250264e-05
2.428336203743368e-05
2.254357298680274e-05
2.28336554295996e-05
2.642013719276143e-05
3.51683439888168e-05
5.205807005636448e-05
8.205264070037403e-05
0.0001258020617563986
3.342243567653437e-05
3.158948881717666e-05
2.914770000841701e-05
2.710287989182382e-05
2.641168011289186e-05
2.815145364670546e-05
3.37402325096239e-05
4.528196038420742e-05
6.616589519516519e-05
0.0001020469271075294
0.0001550075449934076
3.36230840639237e-05
3.182635338724079e-05
2.945364962753265e-05
2.751348795226767e-05
2.697141317211553e-05
2.892158786459751e-05
3.481174658547771e-05
4.679934281714439e-05
6.836386260560061e-05
0.0001052488130036332
0.0001596211717712968
3.486768786423197e-05
3.331333785460571e-05
3.140215400048468e-05
3.015415204567486e-05
3.057886612293336e-05
3.384738073858611e-05
4.151986072480226e-05
5.591159568268665e-05
8.077876561335896e-05
0.0001226289755902453
0.0001864045197514792
0.0002033195897357207
0.0002477937804280162
0.0003359109917171726
0.0002893581375225262
0.0003698506009829582
0.0002671480874201975
0.0003665279351898601
0.0004218711568076665
0.0005261403306885617
0.0003961373518561918
0.0004437466980635145
0.0005534995811220108
0.0006276884297672678
0.0006628731024165685
0.0007499963635253856
0.0008483529220091992
0.001395811364574937
0.0006713249052876572
0.0007039949791877719
0.0008755891984836247
0.001436049632553203
0.001592274825438815
0.004372291285569569
0.001636400408703357
0.0007600103330872685
0.001293271654281109
0.003686699363760983
0.000797015279382908
0.001353356839272296
0.000709890777651867
0.001205169630974348
0.003377429790232053
0.001272386042079893
0.003812169855726932
0.005116046372388665
0.009532525028402083
0.004447550693779667
0.009671939875161633
0.03048071062693792
0.004087468986973122
0.009443556491477377
0.06890354782927532
0.004546175035358554
0.009480633588751572
0.0330986860906367
0.06806034970058765
0.0004013063996104314
0.0003186895742654452
0.0003582619753841078
0.0002338391182835493
0.0002631699090006119
0.0003003151716079644
0.0002677380874298868
0.0004559365074113083
0.000383146933917542
0.0004660912779280717
0.0002820178630203693
0.0003212935479704426
0.0003785558541812296
0.0005020677928708259
0.0005088925026313373
0.000423067277823719
0.0004459871684412119
0.0004266694843355873
0.0003237105140181826
0.0002891450409171681
0.0005122042999945068
0.0003473366392947983
0.0004371654680424698
0.0004639671317781887
0.0004924024549866786
0.0005558502016702886
0.0005712894355573095
0.0004068753889541775
0.0004443256238803837
0.0003538295943137136
0.0003972708891547393
0.0007988353515214411
0.0005953260873565857
0.0004669167007522776
0.0005526755737408497
0.0004241813293139093
0.0005254019092619083
0.0007475229302212477
0.00110854836529969
0.001323492742724255
0.0009024476838069383
0.0006720392282712004
0.000988299616130341
0.001239987276286082
0.0008444684433412525
0.0005952878264411792
0.0005673849965755237
0.0008033118552280128
0.0009568406130653075
0.001325738643278962
0.0009064956872755656
0.0006191244149602844
0.0004391429187212568
0.0004722999361856608
0.0008300755306849715
0.0004925021979426441
0.0005813132282453801
0.0006202838917014297
0.0009868348601825602
0.001514223331083574
0.002302248607877165
0.002407876667179422
0.004236465652712473
0.002666194267734692
0.002781505294189881
0.002463586291665459
0.004427884907537026
0.002840168012845137
0.001125785085673689
0.00070037147372762
0.00103807752204133
0.001193596726341733
0.002013677265852325
0.001868259652193952
0.003906124563705151
0.002356947178302053
0.002193013536346807
0.001179050896221932
0.001371832169655002
0.0009371954933993407
0.001567084678766561
0.002382014671096484
0.002098914957540779
0.004027204594341151
0.004367690794231036
0.002757415061907191
0.002451843532051684
0.00104950770069486
0.0005538222694003869
0.0006267978652014468
0.0006452299340123479
0.000919683893703717
0.0009524804642057109
0.0008072152850086766
0.001053631835346834
0.001093936736094374
0.001876193881139507
0.001708013195302594
0.0009231383355470928
0.001423010443993425
0.001629732246796068
0.003655905894106155
0.002761258385227722
0.003164872075389734
0.002197010426664632
0.002004153807940422
0.001662761519348921
0.0019048894104817
0.001513193364099507
0.00113275823184942
0.001418818933800646
0.002173238201235585
0.002308874909057377
0.001975246679273466
0.001752562606258065
0.004273690086559531
0.003386275222134324
0.004066713835548659
0.002525151611700055
0.002677507191713246
0.002309318383279676
0.002047630015049051
0.004980939028546334
0.008740441926372997
0.008378900088875998
0.00953084393019076
0.01834973198318222
0.01723052401423628
0.02980554713592388
0.02023001526412195
0.01870781581182029
0.03964428323461199
0.04307034216055493
0.0400667573029998
0.02829813298588468
0.0262429506219878
0.04799541067911777
0.04483999237004411
0.05818379056432141
0.05602607818165081
0.03457671500626412
0.04279793666708323
0.05525366615961151
0.04640429578859768
0.03065789487991858
0.01993297408122778
0.0381699023638405
0.02496069782009901
0.005162131575571069
0.008296244800900375
0.009500444715331891
0.01681290940326984
0.02740012423468862
0.01817417202275895
0.03138720730346252
0.0216963123562736
0.02969876649547747
0.04239022810826345
0.004664391472501121
0.008715875054306599
0.008447033122324463
0.009429827222706719
0.02098000035461757
0.02192082911617629
0.06529422103904585
0.06204425419007415
0.02357442104985896
0.02495319379901248
0.004805013638345374
0.005126021223724573
0.008505903742568797
0.008790551124794229
0.009604518924658662
0.01749810616739672
0.009729629683632017
0.0207121311566951
0.05077232059212258
0.0190176538487219
0.02319714044632554
0.05652039480585359
0.03982690643645389
0.03235648734836891
0.04598859812706505
0.004387491679626897
0.003327903512976989
0.003808923354991815
0.008501675687992325
0.00811786599057716
0.006381234729565871
0.007273105324772704
0.009080778143832279
0.02086564471236902
0.02154948202188254
0.007137663217294839
0.01741901554202136
0.008090192177098356
0.01838458286098318
0.06390841172889634
0.06533801894968717
0.02354979553235452
0.02465485690926039
0.0201166202300268
0.02092080677273984
0.06276404431632822
0.005033666765168347
0.004059361675538701
0.004812518984773563
0.0086518128036847
0.008903976255127097
0.008576398847611886
0.007485193775237147
0.009571507148670147
0.01874981545707026
0.01788319267541031
0.009517646906499682
0.02066446386215338
0.008311214404793248
0.0186151230961891
0.05550590918001219
0.02077519702992472
0.01952219174262208
0.04338887227082341
0.02324476998672937
0.02112324893626964
0.05513471770130152
0.05918679727274604
0.05746712653043603
0.06356081069465344
0.06600810342383624
0.06845824033350374
0.07382528810772272
0.06409072108504328
0.06706479603077498
0.05997709418873035
0.0743557254562207
0.06719011682050596
0.05857683001378724
0.05682530848846221
0.05021654560540835
0.06604088171079535
0.06906874050453896
0.07460745822728637
0.06888720645833814
0.07516439746407941
0.07353987614187411
0.06578648820270143
0.0002182697525363782
0.000234845045974743
0.0002207122247513432
0.0001769441949260325
0.0001865364920806985
0.0001642589151542132
0.0001755002943838311
0.0002627271752737328
0.0002849256260485709
0.0002953426389724043
0.0002022004945152104
0.0001947261416493075
0.0002217376711389848
0.000223083452875458
0.0003479925432090917
0.0002640174647779892
0.0002719570734781427
0.0003311668688391222
0.0002143307446406593
0.0002553333943600442
0.0002914557875966488
0.0002546796312997661
0.0001995114089930532
0.0002054915831805441
0.0003156404772958926
0.0003726327675499029
0.0003433210098286683
0.0003306199530059855
0.0003365086915878293
0.0003497801626695999
0.0003096301482965243
0.0003968492275543904
0.0004399928330761413
0.0004042749740365953
0.0003903007422417943
0.000370901321719112
0.0004072867575027226
0.0004287843548810273
0.0005064842235031962
0.0005707910863054617
0.0005197234479346498
0.0004760721338541722
0.0004743700523898859
0.0005180777950661688
0.0005594660405044726
0.0003952810316920944
0.0004017356518121861
0.00042898441824025
0.0003590507034128282
0.0003650743141148091
0.0004334515698282992
0.0003900525635519471
0.0003893903692531016
0.0004587708170919384
0.0004559665369186967
0.0004194811559648254
0.0004324961507166179
0.0004353035740503506
0.000443450931456824
0.0005570495065370644
0.0005792566280656234
0.0005908735179534296
0.000499523171003482
0.0005352058817784677
0.0005245190353882634
0.00061267152881103
0.000501194379886517
0.0005927747177028347
0.000600012564794461
0.0005569420619942281
0.0005267527362356594
0.0005328716194065157
0.0005634416683753086
0.0005974788167665429
0.0007041959342516371
0.0006300237468125199
0.0005876236399852986
0.0005592439571647038
0.0006737314227986242
0.0006238423526820204
0.0008643151608748211
0.0008512971141885002
0.0007968065508554713
0.0007121767081143754
0.0007619084868979951
0.0009042305115929398
0.0008077918225518078
0.0007820122150006896
0.0007539228016793422
0.0008966512312509246
0.0008264826206195022
0.0007342978083210389
0.0008780601106414
0.0007988215203550185
0.001264433774111778
0.001227218053287459
0.001362302046643303
0.001462755105991781
0.001197064432896907
0.001289195850097634
0.00143569720272989
0.0006182427571656211
0.0006456807294875511
0.0007214924000003907
0.0005948085388818054
0.000572517982800711
0.0006385867098544148
0.0006981499962284736
0.0006966078917827201
0.0007424022399734813
0.000751304527175094
0.0006234145131686268
0.0006573830779990631
0.0006649819152578489
0.000786372877862864
0.0008438077389150015
0.0009064540669310842
0.0007789428281476565
0.0009196330710362455
0.0008199515989152535
0.0008074207050514888
0.0009455080889475732
0.001351514295963463
0.001263769330375025
0.001479762585278478
0.001494974894425398
0.001319012379655936
0.001529532450940121
0.001304004584280589
0.00186648276347371
0.0015551206675986
0.001821918356048572
0.001664076642202057
0.001634676037189706
0.001898186962926986
0.001780863057135857
0.003783202066977554
0.004312847107268107
0.004424670151731418
0.003748222076466308
0.00381761426600049
0.003689098292759465
0.00439531239066826
0.001972341959567652
0.001683583090879154
0.001870037781513651
0.001698616340227344
0.001734925942077155
0.001934814068913445
0.001920502432735937
0.0008986780863735349
0.0008632325112998163
0.0007307811156326682
0.0008172060884317787
0.0007907990469341252
0.0009284071979827338
0.0008300388654778883
0.001556228641047987
0.001244851639299459
0.001492041319848773
0.001390368734584984
0.001348359901262823
0.00160317836894873
0.00143717495989656
0.00337141972226723
0.003726156843844961
0.00398894778604207
0.003079251911091195
0.003115778768266309
0.00401763312683725
0.003343681033226618
0.001009025130826291
0.0009050371558407479
0.0008401724780186298
0.0008506277905555649
0.0009534712622154416
0.0008895435914099332
0.0009658004457547989
0.001725681375372516
0.001421623132496852
0.001559737828161692
0.001442359068664816
0.001660915402259008
0.001501194611873732
0.00163605330727847
0.0007205212166209643
0.0008056757895320249
0.000669581444479598
0.000678210299026791
0.0006359313778997234
0.0007591197568948641
0.0007694795370568702
0.0012375707295039
0.001132458081446923
0.001151102726590209
0.001390051244659473
0.001328157077207687
0.001073828948467751
0.001305173787908908
0.002634522621119538
0.003428117926511686
0.003094976631461874
0.002815781471939485
0.002860864749329327
0.003157545403074125
0.00258173645330691
0.00148382224162999
0.001348960445184012
0.00120543928897568
0.001466592266709909
0.001288731301100786
0.001553163030743762
0.001388907851314793
0.003218185872029689
0.003977007807275641
0.003615839858606775
0.003207850907489197
0.003359377442358557
0.003039482657115807
0.003814916072188958
0.005980948607539844
0.005060289037768345
0.006004602865985759
0.00513999425565801
0.005120536227949095
0.005982120500537818
0.005960884892805443
0.01176021705129848
0.009530758857367828
0.01251688086001698
0.009328488445218051
0.009289328536946062
0.01251917354689215
0.01186652721722973
0.03853630407461
0.04383546107939542
0.04624338518685362
0.03658041578780896
0.06381027391901035
0.05170378870334587
0.05454064733131393
0.0593715177274736
0.04620302046192602
0.03539053306582646
0.03984307055211211
0.04104209849767709
0.02829454750424841
0.03005853210204638
0.03385688949863571
0.0251118181926615
0.03079921838650602
0.0309092940708127
0.03584557641954709
0.02652763599450848
0.00580607234655992
0.004487328810910699
0.004783294164284298
0.005396359730355267
0.004804625781539357
0.005440449661217577
0.005782618265792119
0.01242473345952309
0.009533285255897231
0.01334495562921457
0.01113622111220458
0.0112227910148252
0.01356462702458299
0.0133550973324134
0.02454948685356045
0.02931434688748869
0.03968263240691575
0.02535909505755473
0.02583570124126485
0.02354082330838337
0.03096876669627232
0.047716489822036
0.05134551502722635
0.04159642644895827
0.0587720792255704
0.004635097201693863
0.004142623656842196
0.003751722611707953
0.004965155661156452
0.003821486633800073
0.005026653819825659
0.004566382542972532
0.01173541315901301
0.009231435992246297
0.01310560173995173
0.008693101295583634
0.01300865518954051
0.008263951428743492
0.01215535618525702
0.06465272756927978
0.06903491934967844
0.07198202775661895
0.03905587856245051
0.04311301817223932
0.04203621509766219
0.005448967234706495
0.004736294086352223
0.004327977410565346
0.005481238355067044
0.004535262265227922
0.005689707902875117
0.00521685718947041
0.01262929597345799
0.009518663397434729
0.01259074511262632
0.00913982546107577
0.01263464735090139
0.009317445914099109
0.01241519089066295
0.03956637309340018
0.04921674612240991
0.04274702278638648
0.03453089550983713
0.02719152415978921
0.03016378078445067
0.03228014892015527
0.08447907505948166
0.07510382556906439
0.07873733106488658
0.08242743566231266
0.09658903660224742
0.09278596719735566
0.09203670920962063
0.09845695398744883
0.08640199401979949
0.06504993725889978
0.0811725003553362
0.07300577284794148
0.06992770050557533
0.09073971352724006
0.07718023410707703
0.0748239165556808
0.07335381735233285
0.0665013562356682
0.08108422607406249
0.1057110109924739
0.1026828117385245
0.1052517915194066
0.110040071258265
0.000328277217867452
0.0003848203584428947
0.0003810498297133089
0.0003658308153312774
0.0003461584144148327
0.000349268507066551
0.0003627173352275483
0.0003007090060310869
0.0003270291299673228
0.0003254010602658528
0.0002872446752159809
0.000333657399998657
0.0002932557840653079
0.0002947214543166207
0.0003133071184174811
0.0003660201812297585
0.0003388824980335773
0.0003236477246023773
0.0003310358329885762
0.0003469721121698988
0.0003058328907585015
0.0002704855667049678
0.0002587800945765438
0.0002387962562961862
0.0002392919309499564
0.000244272874295193
0.0002641563550885946
0.0002650899205673492
0.0002818583253606905
0.0002917335515543271
0.0002480562741374321
0.000268879112052578
0.0002535325246952581
0.0002983079822226257
0.0002754595424555133
0.0002954698758975694
0.0003331195119884765
0.0002800564124808352
0.0002825148510115372
0.0002645279520965204
0.0003124289077337215
0.0003150654554595214
0.0002839100085792282
0.0002972982747837556
0.0002502906125011525
0.0002730080308228199
0.0002552691208540588
0.0003029603377740127
0.0002784407770714582
0.0004304224713686393
0.000460438604266914
0.0004731550407094517
0.0004027549477949953
0.0004420702916231128
0.0004376626495320845
0.0004549965548024313
0.0003815106969184352
0.0003904085788363466
0.0004108491721916732
0.0003480930027663304
0.0003556044966823816
0.0004170466073301006
0.000374677873837919
0.0004148585404381131
0.0004683030336198237
0.0004409468858492648
0.0004241469457808879
0.0004269849180437538
0.0004458114405148409
0.0004080778707003601
0.0003492147366623793
0.0003145183449229817
0.0002879222367833481
0.0003076948749809278
0.0003150203810822543
0.0003215015777541613
0.0003414375015768562
0.0003660709929577693
0.0003593010547201923
0.0002995521587701962
0.0003587720529972534
0.0003277846486779176
0.0003364678072898022
0.0003911301168106023
0.0003845177765849283
0.0004088859717114104
0.0003336232931834387
0.0003913307527989287
0.0003420447516637335
0.0004194769396623875
0.0003752858350925462
0.0004043460978855919
0.0004880399406123096
0.0003895756059995219
0.0004070138653491796
0.0003575314376146292
0.000443090621023838
0.0004326835244023947
0.0004990543718566769
0.00051236956797365
0.0005470246080747467
0.0004614969170482243
0.0004652372984074311
0.0005508558862637934
0.0004954491393058261
0.0004080459693918634
0.0004127376236309775
0.0004493721433776666
0.0003945712227870088
0.0003780430115359926
0.0004152536328254525
0.000442101212567194
0.0003753430659470253
0.0003626549630635818
0.0003045892441177245
0.0003647739208951832
0.0003358488761790448
0.0003424276925647337
0.0003980292489915134
0.0003603177960500106
0.0003233369890698469
0.0002946121632414592
0.0003174143621113542
0.0003244683614063548
0.0003294254917140931
0.000353401360803649
0.0004580266736697801
0.0004873113371111538
0.0005429247345595256
0.000464537452350732
0.0004519762424317913
0.0004939593451053722
0.0005058911504851078
0.0004839951167317769
0.0003924847785547321
0.0003846624986071564
0.0003916446838343937
0.0005049985054898997
0.0004261320789280786
0.0004325585852575691
0.0004607270373212891
0.00050328758906244
0.0005061802712392284
0.0004394871967680323
0.0005168514085811717
0.0004489785704628818
0.0004514246586242737
0.0004790745458003698
0.0005683901750027256
0.0005247422267144736
0.0004948510144567383
0.0005056849075282873
0.0005378869047736376
0.0004676987295650584
0.0004835756478850265
0.0005809495109498133
0.0005329651532190436
0.0005079023264368926
0.000516297846780549
0.0005432199709992107
0.0004746442239211436
0.0004323000874979377
0.0004535343085406407
0.0004134075201226467
0.0003811208671219995
0.0003881343483149472
0.0004608608900445653
0.0004244608171227102
0.0004477510656661564
0.0004961095693310541
0.0004262317169376725
0.0004217728491851182
0.0004019690702710294
0.0004700763538728926
0.0004752904347065475
0.0004123302343437521
0.0003937073269498262
0.0003630970614524294
0.0003612705211062169
0.0003703997739148667
0.0004020552028322871
0.0004041511595078483
0.0004284639047966418
0.000442386619986852
0.0004056417415005784
0.0003760012294084824
0.0003848431478879416
0.000451809510462263
0.0004185287107790878
0.0006403012862881726
0.0007501060753953201
0.000708551609537998
0.0007738514689239717
0.0007222754286744616
0.000686396539722693
0.0006645821791877701
0.0005792021418729906
0.0006071054758211518
0.0005293346589991506
0.0006416069868075246
0.0005394856890276306
0.0006525066092730446
0.0005698331798275731
0.0005314223874048325
0.0005225479217350574
0.0004920073748303588
0.0004466221526559507
0.0004747888288489839
0.0004983471507592179
0.0005535973978556511
0.0005686813507043007
0.0006284778893775521
0.0005212165923137197
0.0005395526212246415
0.000506178123675986
0.0006093398679276447
0.0005891383456536666
0.0005159589150232259
0.0004726293978784544
0.000431882871910741
0.0004551357119533372
0.000461899988547953
0.000481383634631411
0.0005079994123735474
0.0005546426587602991
0.0005301554729087301
0.0004893202786111681
0.0005901101738738058
0.000495078735769521
0.0005965535297332051
0.000547482061005415
0.0006235574682810298
0.0007564511422375062
0.0006929612273314729
0.0006634573511476334
0.0007029019097361742
0.0006711967676103507
0.0006150052086061516
0.0009837958208384705
0.0009696394687148339
0.001176247390961979
0.001050702368569528
0.00102949406727315
0.0009195290152501409
0.001123835492507881
0.00105362489364575
0.001249111117598388
0.001161338291891341
0.001283468032002685
0.001125786571296266
0.001094414539152946
0.001202712895411797
0.0009261650325753299
0.0008483448144417218
0.001022231256219865
0.0008743603831332873
0.0008167167304639942
0.0009906422377948924
0.000962067820015292
0.0008362110364933395
0.0006856837732568892
0.0007613802256210008
0.000724868227029542
0.000737459731788932
0.000777183316346199
0.0008216952602480827
0.0009514639984109547
0.001009624151143116
0.0008657820025696254
0.001067203078431299
0.0008841145437566744
0.001086565521414607
0.0009347170176484997
0.001024720387906539
0.001254877940786712
0.001152465634673786
0.001087431375044274
0.001100537565737217
0.001169656967278359
0.001009735528622639
0.0009008543745377855
0.0008546372467971155
0.0007831211698594211
0.0009567843989635598
0.000794543570630314
0.0009683292406826722
0.0008877727386635978
0.0006987008351746781
0.0006707391350269973
0.0006386612859347153
0.0005814781554748662
0.0006261694402489346
0.0006534199238298184
0.0007136605689059867
0.0006877301427675263
0.0005721801768278732
0.0006107943702063323
0.0006357373826336229
0.0006157127482887607
0.0006417013742177885
0.0006821665768871526
0.0007700931466501304
0.0008111836501660776
0.0007137882305227231
0.0008581479090284654
0.0007207302511667065
0.0008649331414534246
0.0007639536949248084
0.001116643507644312
0.001082107690456549
0.001009318211920002
0.0009324994318985822
0.001055009721630461
0.0009888154320717559
0.001139209550539899
0.001246714871224128
0.001338277394825939
0.001405984731327359
0.001164411386257687
0.001175582210765045
0.001416194028105029
0.001237477853019506
0.001100593174615058
0.0009153530413224919
0.001025865093490155
0.0009667819855937656
0.0010358139059004
0.0009743014018067538
0.001092254710658912
0.000604376637064836
0.0006280474663892745
0.0006740501507498693
0.0005494973610724857
0.0005572265544648424
0.000682136751725867
0.0005973972378518785
0.0005375530154669604
0.0004898987674138511
0.0004449990494943791
0.0004757593734686876
0.000480658661690892
0.0004965628730146172
0.0005316696611762895
0.0005492138468565259
0.0005287183054815442
0.0004564212100419167
0.0005029140535934872
0.0004901672133483038
0.000509701585979793
0.0005662443680917473
0.0007319871391946281
0.000785003229589589
0.0008657234038247652
0.0007368787846167365
0.0006956288522696203
0.0007695469551222591
0.0008250819318734311
0.0006171249159364305
0.0005532379434121232
0.0005205616939095502
0.0005154970753429827
0.000541813380462347
0.000582540306508125
0.0005889707501316899
0.0006500822876303738
0.0006549430203420451
0.0005455020300860963
0.0006110867245490225
0.0005760837427817507
0.0006166227936439763
0.0006855116747509248
0.0007556530304300903
0.0006945897724577575
0.0006460872169894487
0.0006580146801400389
0.0006789984020360688
0.0007334809372059199
0.0007213523392254717
0.001196937621821036
0.001115229447313947
0.00102054828899247
0.001034443449728474
0.00116663776905159
0.001062504162972703
0.00115210031695456
0.001843182770172937
0.001528287049970672
0.00173520260358842
0.001602051982171222
0.001613298071645149
0.001750954804924615
0.001830852453021554
0.002112078365788179
0.001995206451693554
0.002321846609792038
0.002413022918029133
0.00242751899055606
0.002012808967607452
0.002098647153105777
0.002137274681185513
0.002091180236225287
0.002358588071910337
0.00249004157195836
0.002454467630312103
0.002171106932636821
0.002046037323186741
0.003754253286492035
0.004263693591649678
0.004352314782206569
0.003616448621229732
0.003642164734515853
0.004368245382018773
0.003737909540806021
0.00323641854447658
0.003099228913975874
0.002687888617362554
0.002783183351880453
0.002798621349440575
0.003123024426774309
0.003220299157766215
0.00326559744218749
0.003223611959871271
0.002728231381729541
0.00286360224489054
0.002826992398044413
0.00330205900523181
0.003166868795212724
0.002247243111039143
0.002143244475670227
0.002518827054147164
0.002529137780743122
0.002209364136575781
0.002566022393953171
0.002196531280830913
0.003865824509639333
0.004465053441053631
0.004445336563257818
0.003807969710683816
0.003848341269520776
0.003856242603548114
0.004446203943859357
0.003366121975960083
0.003283929006051857
0.002895888046288601
0.002902255947823364
0.003338271901781385
0.002936119489008621
0.003337760723594915
0.001024876633654788
0.0009839435716943747
0.001083081730020356
0.001210692300859806
0.001173200128290259
0.001058283317182685
0.0009462896764576306
0.0008780703592564161
0.0007106050890063361
0.0007633419462809474
0.0007953497695387795
0.0007725766052910461
0.0008070420009350169
0.0008675966311575583
0.001001630484894858
0.001053292467713287
0.0009067733333519333
0.001133638773697046
0.001147013605550307
0.0009201128089526013
0.0009897861453212321
0.001523163799968787
0.00121095217184221
0.001378816290643584
0.001303819594202419
0.001318902890755272
0.001398610539849101
0.001506186484235924
0.00180417266069387
0.001729184709757646
0.001943625428220105
0.002159313956810125
0.002101481698189333
0.001856436909184826
0.00166710472507681
0.001767185514059977
0.001600719153768147
0.001893923359825289
0.002039062769208041
0.002060331990580692
0.001623277748144734
0.001748135776652813
0.003423805286018307
0.003802321726606516
0.004148036829257112
0.003282338852590387
0.003496818336205354
0.003185723406258835
0.004072177785160448
0.002894402189603826
0.002773610769734681
0.002278261892876846
0.002523343932246342
0.002459918967197562
0.002963064124815799
0.002685886050654965
0.00284506350439489
0.00259007172365418
0.002222113613400739
0.002390971549178233
0.002414535382439581
0.002622872460428794
0.002819265585709653
0.001148078320599045
0.001031138471814893
0.001239992440318365
0.001257356314249875
0.001085480431884144
0.001100081074454393
0.001310572095606664
0.00119979712557361
0.001305377091711852
0.001204637574724899
0.001424800745556375
0.001144264088975785
0.001252631733144972
0.001367406038812634
0.001055974414333715
0.0008875865989454657
0.001061001900424394
0.0009764666181619092
0.001006266913572366
0.0009321368151751689
0.00110441214645319
0.00179333138592843
0.001494199351166492
0.001625348893654869
0.001795856386988142
0.001859624062210709
0.001563390920855325
0.001716344110492117
0.002064031645599681
0.002064796410050043
0.002456531235802198
0.002289792998908941
0.002134085020996165
0.002383803738987738
0.001978707980590104
0.001991085242944198
0.001805288229423373
0.002193184213638335
0.002229321290787441
0.001920242933990599
0.002306106727948694
0.001890320929847007
0.003670009671130208
0.00423444745531431
0.004155331105393474
0.003395895653688046
0.003581911233776523
0.003517092959581756
0.00432052913819302
0.003751075198328294
0.004445488465734655
0.004273532463128873
0.003733867910408907
0.003815897128377521
0.003633685888159717
0.004394123605068966
0.003213495083870329
0.003203102228587245
0.002836374651053093
0.002660106410928915
0.003284955488904573
0.002762812200436037
0.003102667102240618
0.003130606184644568
0.002878236736487456
0.002555574411135509
0.00259935505483083
0.003044355474408485
0.002681503281906807
0.002991160020646982
0.0008195778296408023
0.0009177529197252723
0.0009870175855519392
0.001002245695105242
0.0008638851985203774
0.0008764049454160699
0.0009360900324495745
0.000658214130483468
0.0005663647548332019
0.0005698223407690874
0.0006253613414483573
0.0005821133777655489
0.0006398548466343774
0.0006440249968511538
0.0006861029885519924
0.0006413425827233597
0.0005910555116504266
0.0007094810610112208
0.0006063117635533916
0.0007263802764413117
0.000668340141208414
0.0006937918730623764
0.0006563338151762099
0.0006008869277483093
0.0007316591685927675
0.0006126892824487946
0.0007444095048038704
0.0006801945416397729
0.0007794683449801364
0.000942684964496887
0.0008061608714495654
0.0008648659820910253
0.0008258445177191175
0.0008891895300778297
0.0007587203450769144
0.0007888075967640656
0.0009693049432212351
0.0008330371313914381
0.0008824980288323036
0.0008476779402812935
0.0009006159641188935
0.0007731240953419382
0.0007472698667245105
0.0007089999675919958
0.0008267047460971338
0.0008329182317627482
0.0008519415677478968
0.0007257871409995306
0.0007308575782655276
0.001172680783552719
0.001080611388362901
0.0009901450625330881
0.001212526677810871
0.001018777318094952
0.0012443058074911
0.001138825631679441
0.001190173054993589
0.001113291906095894
0.001262423812553051
0.001011892839936289
0.001284714481823138
0.001032860875620943
0.001165862228919499
0.001433402144132267
0.00161087189487271
0.001795068604281735
0.001759392404910187
0.001539997324195726
0.001669142317372454
0.001511465999500732
0.00137847285613138
0.001464358900301755
0.001737636941450743
0.001572552891009145
0.00149005116039975
0.001605385058016932
0.001350239891911884
0.00112250427227157
0.0009458200892666806
0.0009534951388548561
0.001060756406460489
0.0009755939169610859
0.001087216808656264
0.001096776778538336
0.001298143501320714
0.001474516056936929
0.001225182277853832
0.001459265359821179
0.001509553184407732
0.001256120444158909
0.001268135601642282
0.001356571010746398
0.001402110837593616
0.001674443285784401
0.001529689239210784
0.001577727987830302
0.001439713436261483
0.001316347452914478
0.002735117910404521
0.003524206182227874
0.003430253965520675
0.003066057923639469
0.002946941842336661
0.002873983171605302
0.00327293032085881
0.002463868420655019
0.002865989371754295
0.002822254115434521
0.002314638905978562
0.002946852936320078
0.002374872674072665
0.002408286214971102
0.002575725363521014
0.0032583831177785
0.002974534110939771
0.002652116844472828
0.002729730920275294
0.003080756604897363
0.002489854608840563
0.002304208547859252