/*--------------------------------*- C++ -*----------------------------------*\
  =========                 |
  \\      /  F ield         | OpenFOAM: The Open Source CFD Toolbox
   \\    /   O peration     | Website:  https://openfoam.org
    \\  /    A nd           | Version:  7
     \\/     M anipulation  |
\*---------------------------------------------------------------------------*/
FoamFile
{
    version     2.0;
    format      ascii;
    class       surfaceScalarField;
    location    "0";
    object      phi;
}
// * * * * * * * * * * * * * * * * * * * * * * * * * * * * * * * * * * * * * //

dimensions      [0 3 -1 0 0 0 0];

internalField   nonuniform List<scalar> 
36797
(
1.795174973731491
3.143215535149542e-05
3.16882857604326e-05
1.795108835296872
3.293085602251722e-05
3.320719093389674e-05
1.795036396550856
3.606003167456693e-05
3.637977434769034e-05
1.794953800285001
4.110335496883914e-05
4.149637019688511e-05
1.794856216505067
4.854143048898265e-05
4.904941742276866e-05
1.794737278381859
5.913292527647128e-05
5.981735866992375e-05
1.794588235839768
7.405325243110165e-05
7.500816458351799e-05
1.794396628840992
9.513018212970512e-05
9.650370420908889e-05
1.794144131554539
0.0001252489992495499
0.0001272831965835053
1.793802907141334
0.00016907315988135
0.0001721914725836424
0.0002344734314288656
0.0002395024841583898
0.4483346129145701
0.4483351122906099
0.4483288954721795
0.448330349360056
1.79517639843381
3.135160076943456e-05
6.177735892138604e-05
1.79511180996947
3.283885196481152e-05
6.468046826398141e-05
1.795041190860076
3.594332860236828e-05
7.073581239117829e-05
1.794960871105545
4.094467457084864e-05
8.047843484873033e-05
1.79486628504479
4.831623343639161e-05
9.481125762030688e-05
1.794751462017842
5.880424629813378e-05
0.0001151517056472196
1.79460827209607
7.356293879203254e-05
0.0001436802351788793
1.794425260541509
9.438311108576635e-05
0.0001837586252874543
1.794185791897256
0.0001240804028386383
0.0002406372401821955
1.793865078274465
0.0001671552212263913
0.0003226315609525547
0.0002309180110815635
0.4483556681160636
0.4483511768117968
0.4483563236978935
0.448362635168993
0.0004428298996033113
1.795176603067262
3.105223333764647e-05
1.795112238540042
3.251521503037326e-05
1.795041885144116
3.556753766454875e-05
1.794961902469609
4.048081070143965e-05
1.794867767319573
4.771409113580401e-05
1.794753573621378
5.798970920385125e-05
1.794611294192862
7.242243100120298e-05
1.794429646128101
9.27372628439952e-05
1.79419230484551
0.0001216349033385859
1.793875111938178
0.000163390154081465
0.0002247865419541566
0.4483564495614021
0.4483566776672657
1.795177993814235
6.103446641436121e-05
1.795115140154252
6.386867038530289e-05
1.795046555824314
6.977593293286917e-05
1.794968778606815
7.926844803368949e-05
1.794877535579005
9.320840129589675e-05
1.794767293727531
0.0001129446926455557
1.794630605979876
0.0001405440408843952
1.794457116947591
0.0001791793041633539
1.794231998430753
0.000233784438141415
1.793933476879396
0.0003121253381734199
0.448376559900018
0.4483811794396494
0.0004262325293112435
0.1120373993580151
4.783262189491736e-05
4.881443123564371e-05
-0.4482480816604451
0.1120374767389524
0.1120382948066035
0.1120382666600511
0.1120463005618789
-9.333024259331648e-05
4.750405834386114e-05
0.0001372844746382588
-0.4482717794900815
0.1120478076390118
0.1120439281298907
0.1120422848689479
0.4482395638401009
-0.0001717374936954297
4.385361796625036e-05
-0.4483205838609905
-9.193684773729995e-05
0.1120827947480954
-9.421069390408108e-05
0.0001278263380851127
-0.448300874569501
0.1121076570622872
0.1121105810206674
0.1119267383586224
0.4482700682572656
-8.507176319128019e-05
-0.0001667638505564644
-0.4483450209275333
0.1120564563604372
-9.450908098784798e-05
-4.638061672546017e-05
-0.4482831678210246
0.1120533259203936
0.1120267400243922
0.1120561888163888
3.676960581507932e-05
0.1119803826762453
8.963191291400108e-06
-2.798582064755806e-05
-0.1119981289798702
3.525865418775461e-05
-3.479060369206552e-05
0.1119900542165766
4.273380841442967e-05
-2.695098334425225e-05
-0.1120063050921214
3.22055200054904e-05
-6.429681188961349e-05
0.1120138400672719
7.011496973881602e-05
-2.447297206610442e-05
-0.1120273907730542
0.1119850569960477
8.81329739144121e-06
4.510315202033155e-05
-0.1120022026853693
-3.404615609109279e-05
0.1119946003013563
4.318985645622572e-05
4.180990569421488e-05
-0.1120102952532314
-6.324205515849267e-05
0.1120179339322807
3.998412342662584e-05
6.954855206231523e-05
-0.1120320190325881
5.395977679201397e-05
5.608505991346296e-05
0.1118971042025461
-4.283864340129234e-05
-4.10821980055064e-05
-0.1119232281978544
0.1119038263451273
5.511580281182458e-05
6.617011167264764e-05
-4.209205021332696e-05
-0.1119290604326544
6.205642578417584e-05
-6.068191937264127e-05
0.1118755646894858
7.433278644697343e-05
-4.744563725490803e-05
4.937785390578394e-05
-9.760644634683299e-05
0.111943541014826
-0.1119636914421669
0.0001060562814978609
-3.767726171534255e-05
7.873376622437272e-05
0.1118390331552419
-0.0001551843677042582
-0.111869356970919
-6.037122000179806e-05
0.0001671456371508666
5.286604787590809e-05
0.1119051418004346
-4.024329162408907e-05
6.849601173310097e-05
-0.1119301755085633
0.1119116582815813
6.484253435468325e-05
6.732592296998512e-05
-0.1119358448882934
-9.571986636365528e-05
0.1119501525088449
6.037649259482668e-05
-0.1119694605914958
0.0001040293103288656
0.1118508203204271
-0.0001513715801532276
-0.1118795037614255
9.568505824050942e-05
0.0001631037290529762
8.917949314371467e-05
-0.0001755956083520509
-6.848274221482619e-05
0.1118052999011141
0.0001886321114458104
0.1114288912407781
0.0002371692119362451
-0.0004615938950650644
-0.0001851012715464901
0.00048294765907495
-0.1115023129451661
-0.0001710014120323145
0.0001081768445759667
0.1118190452624948
0.0001837791183720303
5.938252902259824e-05
-6.3207939022709e-05
0.111877124430567
-4.524156226780073e-05
7.708434210407229e-05
9.765325130040034e-05
-0.0001058058166231307
-0.1117703533082128
-7.470833909829755e-05
0.1117251207385106
0.0001280934741286628
-0.0003313559444509776
0.1110828005357174
7.2864906807572e-05
0.0003915007879081884
-0.1112158175189624
0.1118846477698252
7.275487816593907e-05
7.56945883164661e-05
-0.000103362790122033
-0.1117822243668503
0.0001190109697872256
0.1117390595620833
0.0001251698763233832
0.1118677860167487
-4.833330785805481e-05
-4.623836485598965e-05
0.0001004100107966367
-0.1117552990956199
-8.137694938348261e-05
-7.683272283512914e-05
0.1117072929403378
0.1110069783828678
7.643583730616023e-05
-0.0002595186318284254
-0.1111552587218227
-0.1117676622247039
0.0001223394093591846
-7.948089624357316e-05
0.1117218509321578
0.111145876447738
0.0003008574549303948
-0.0002855723976668913
0.0003425362559105009
-0.000235733559115294
-0.1112679642018062
0.0002774907297395824
-0.0005386803979689811
-0.000217379100609993
0.1113468329983871
0.0005606270112803504
-0.0002799488733594469
-0.02770324584063783
1.892233587308764e-05
0.02768229116036212
0.0002819812177596069
-0.0003985491576489756
8.654151044136142e-05
0.000468176647608918
0.1109266239918246
-0.0001947435097384484
-0.02760766972150077
0.0001613112521688306
-0.0001445791854815711
0.02757558783798645
0.0002100933265700614
-0.0006870831883259282
0.0009540448561558398
0.027561023184517
0.000700160162380538
-0.0009831180979630928
-0.02754502691675995
9.121173487325732e-05
-0.0003134342309289714
0.1108306442401155
-0.0275853704727675
0.0001674530706182196
-0.0001501300688350514
0.02755030710764891
-0.0001770031464038808
3.243968086853021e-05
-0.0004157716790237314
0.006486984591595403
0.0004204164176813585
-0.006507838505609751
0.0003583548593544977
-0.0003387751088013494
0.0004044974621485628
-0.0002823689025271135
0.1110041681374731
-0.02767869017294185
2.027149080393046e-05
0.02765472212095406
-0.0002762523121601452
0.001040651783519299
0.02746848316993091
-0.0006585582570422052
-0.001075645613160978
-0.02746201427161362
-0.00655790515515377
-0.0001287213767205221
0.0004334484939234915
0.0001440133427589586
0.006542010286921598
-0.0004328455917268322
3.591837993581316e-05
0.1119862204926054
-2.647413597256172e-05
-2.738531087833927e-05
-0.112003070029397
0.1119731102093535
9.477387829148146e-06
9.18246838566962e-06
-0.1119917700805289
3.574123350996569e-05
0.1119792352179463
9.281854503962866e-06
-2.715339005086667e-05
-0.1119971049159112
0.1120236980255207
6.887196882693969e-06
6.810858555635167e-06
2.591011546765158e-05
-0.1120400464258542
0.1120277568328873
-2.038761371885048e-05
6.767091212125958e-06
2.573513235952546e-05
2.610880918574306e-05
-0.1120403634101661
0.1120317587183148
-2.182967737454581e-05
-2.140957230106597e-05
2.648726359093636e-05
-0.1120412268631712
0.1120286976719207
-2.084524255821453e-05
6.884122890709405e-06
3.314024014786791e-05
0.1120071762528649
-5.68352204677325e-05
-2.484184750778495e-05
-0.1120229362369152
0.1119832098809788
9.148624213145167e-06
4.393975244337972e-05
-0.1120005570241407
6.541081512716248e-05
0.1120003260711009
8.494542772373893e-06
-5.87590405743846e-05
-0.1120154723884301
0.1120310521523393
6.654600433799115e-06
3.450392458742742e-05
2.540318446975216e-05
-0.1120558867116879
0.1120349442624917
-2.199550357299767e-05
4.326990069041758e-05
7.045266512838155e-05
-0.112039359774904
0.112020758603089
-6.412941385839029e-05
1.227792054219482e-05
0.0001957804767045504
0.0001547961717325852
-0.1119423690258395
0.1118885552594389
-0.0001719787250179517
-0.0001247841570023705
0.1120075439923713
8.252517859046452e-06
7.140598356615362e-05
-0.1120217916786093
5.107830771469831e-05
-3.229406863481527e-05
-8.304516364853604e-05
-2.613542503921568e-05
0.1120438305004406
0.1120338186052839
0.1120347982308202
0.1120429366172846
0.0001020033762227061
-0.448248834599525
0.1120506196306318
0.1120366046041265
0.1120347230146753
0.1120468779720947
4.322817899710812e-05
-2.620710528988823e-05
-3.43674260378582e-05
0.1119907617848135
-2.597563416151212e-05
4.40279413135418e-05
-0.1120069418681613
2.493889144972178e-05
0.1120356887082838
-2.136302291333438e-05
4.330059284162048e-05
-0.1120476391618672
0.1120325572748087
6.754030580493362e-06
3.481174694163069e-05
0.1120113095707342
-5.598254901428838e-05
4.072823697730403e-05
-0.1120261570736822
0.1120385979077128
4.580656384334235e-05
4.873235249824859e-05
0.0001982638340946384
-0.448234850684802
6.599295819510742e-05
1.102170519585999e-05
-2.658000505296326e-05
0.1120404834512928
0.1120416250592772
0.1120249746606579
0.1120456754379927
6.857932848294834e-05
1.105721728934805e-06
-0.0001962731161680442
-3.904874113136447e-05
0.1120456254013176
0.1120472375325334
0.1120484883557151
0.1120482035733962
0.1118736356686458
1.437838153718866e-05
1.498000416631789e-05
-0.1119029958772124
5.56639128454066e-05
0.111884551417349
1.458333295896122e-05
-4.238880998970718e-05
-0.111912409853181
5.758582389016252e-05
0.1118866922102484
1.393231527185833e-05
-4.399427335376259e-05
-0.1119142174531031
4.09119646823536e-05
0.1119606922070915
9.947040511664351e-06
-3.116829177079709e-05
3.862432766580964e-05
3.994285041223311e-05
0.1119674700248723
-2.93718752283158e-05
-3.044483514162508e-05
0.1119523179779911
1.057437845835509e-05
1.021745030268991e-05
3.971589654244574e-05
0.1119593740705405
1.033414875624976e-05
-3.018889789770767e-05
0.1119320202349172
5.104973166503169e-05
-8.809205854422377e-05
-0.1119536231949301
-3.896115943824429e-05
0.1118915966768519
1.432690137600731e-05
-0.1119184990270448
6.823936164799124e-05
3.928737181555184e-05
0.1119718958027676
4.74543385807797e-05
-2.995896896037917e-05
7.096062629377487e-05
3.6803165800779e-05
0.1119908923350348
-6.354830518989622e-05
-2.793156906441399e-05
0.1119639551132092
1.017422345124194e-05
4.879644083588823e-05
7.26287363996975e-05
9.475401015430838e-06
-6.528777530202923e-05
0.1119835097090238
0.1119211457599327
0.0001005358489667429
1.325058599088619e-05
-9.077500792820103e-05
-0.1119441571869704
9.045789247825538e-05
-8.804688171244737e-05
-0.1118080679593056
0.0001074381148986924
-6.944339111000719e-05
8.211263951274379e-05
0.111818621914594
-0.0001411784459538766
-0.1118517561098056
-6.298436616525276e-05
0.0001091272262574982
5.722142253662599e-05
-9.866938425007398e-05
0.1119080624012163
-4.372143083326811e-05
-6.270917234800353e-05
1.616973892737419e-05
0.111861342222257
7.679388799866946e-05
-9.16041000517116e-05
0.1117446467751311
2.377921575204692e-05
-0.111788561525076
0.0001117396342416585
0.0001611612133138324
0.1117987895690078
2.154656430107564e-05
-0.0001466968848296695
-0.111834800461784
0.0001126108315390717
1.488925058144934e-05
-0.0001018613512335241
0.1118955070290966
3.583348273039633e-05
0.1119986427276434
7.755320187478916e-05
-2.722871864085618e-05
9.206156749586555e-06
7.931745693499486e-05
0.1119916491151383
0.1119332207425021
1.280991844096931e-05
-0.1119546919614596
0.0001091971495215807
5.523692688600058e-05
0.1119212875464459
0.0001183387572962693
-4.219498950383384e-05
0.1118204471724571
2.064409244737459e-05
0.0001734773762569951
-0.1118534074278728
1.436510422612592e-05
0.1119094017367637
0.0001220647331011705
0.1118950492149668
1.364578734105326e-05
7.030798437704509e-05
-0.1119214182341501
0.1119660826428355
9.767152465298004e-06
5.011986240131942e-05
3.788467263277078e-05
0.1119727104442969
-2.882138277904294e-05
4.893090104173109e-05
0.111938984493154
-8.63686511528696e-05
6.240637263629621e-05
-0.1119596923493447
0.1119770659486932
4.813923195357006e-05
4.656716509643392e-05
6.986641670637755e-05
0.1119955823765828
-6.254289370265116e-05
4.520683696486327e-05
0.1120031046642147
4.407525646143986e-05
7.645391107417893e-05
-0.0001068878820523778
0.1119288883097731
6.744784387836737e-05
0.0001159411641072424
-0.0001828188167619657
2.345863245111931e-05
0.1117835508791618
0.0001962564775560071
0.1116431254873724
-0.0002728614217160253
-0.1116955993624416
3.5240396814499e-05
0.0002900948999655184
0.1116789368961921
0.0001323897595899033
-0.0002596727510750742
-0.1117257821744122
-0.0001022213776295904
0.000276349647315621
-0.0004938932937085738
0.1113540680732701
6.46039305140588e-05
0.0005158081004529014
-0.1114405868105284
-0.0003143451939301992
0.1115838453978454
4.070811951249397e-05
0.0003329171639036692
0.0001521889545961502
-0.0002980247945248095
0.1116265516217715
-0.0001177717052850249
0.0003159928196470034
0.1117012787000551
-0.0002513750347615053
-0.1117447029476644
0.0001594968451917544
0.0002676921967854638
-0.0004417443038702431
0.1114743908402211
0.0002819698673599995
0.0004626792340443155
-0.1115401264257991
-0.0002878029792501419
0.1116530519413761
0.0001828396867277024
0.0003053790058151394
8.578219266180999e-05
-9.246484860255859e-05
-0.1118102978522035
-6.555016318174871e-05
0.0001121773630133746
-6.49917597362749e-05
1.535450005302098e-05
7.923645548757463e-05
0.1118654482949903
0.1117518121100574
-9.558789404860726e-05
2.232273987881702e-05
-0.1117944740799484
0.0001159234975158796
-0.0001096154105334806
2.547565350138808e-05
0.1117032967831832
0.0001326508814152305
0.1115481688811784
0.0001475160853841346
-0.0001629439436283209
-0.1116151611593033
-0.0001133225678060324
0.0001957427041787696
0.1115115288008628
-0.00017012694210878
-0.1115844885536337
3.88274925034893e-05
0.0002042535050851908
0.0002722351068567441
-0.0003126768954413832
0.1111620096274404
-0.0002108111481810383
0.0003696802429191448
-0.1112804369335958
0.0001707174386391992
-0.0001900874640095684
0.1114712815702799
-0.0001313604185733634
0.0002276177548130111
-0.0001990854336467744
0.1114272762288806
4.509183795223668e-05
0.000238240043720495
-0.1118204519693773
0.0001046985783810552
0.00010976910915586
0.1118311904885445
-0.0001376602921436965
-0.1118625360174672
9.9746880270688e-05
-9.661995623133639e-05
0.1119160873041896
6.985068568514413e-05
-9.325084698073911e-05
-0.0001558762823860998
0.0001130584065474883
0.111796257799238
0.1116648507555613
-0.0001397431543504699
-0.1117136636299527
0.000168231347828397
-0.0002310503538417388
0.1115713702344365
-0.0001583696949953864
-0.1116346443439244
0.0001788364728424696
0.0001903234169908791
0.1112107576578918
0.0003561694312789676
0.0003269510132751448
-0.111320785540828
-0.0002547598205507518
0.1114025416757509
0.0003024981835753181
-0.0004121666343585762
-0.1114798577082395
-0.0001612474762462676
0.1116101361165942
0.0001935588505604931
-0.0002653997145668065
-0.0001843710803883493
0.1114990497667989
0.0002065345301289636
0.0002208744565082086
-0.1117975203127664
-7.099771384470938e-05
-6.729279949786704e-05
1.622712553361778e-05
1.694816781673059e-05
0.1118404580378183
1.647508377672631e-05
-4.779373274701672e-05
0.1118531608939648
1.569530700784579e-05
-4.970861044935271e-05
0.111855711781832
0.1117314975852022
2.431685834809161e-05
-0.1117773878298873
-7.003071374182353e-05
0.1117359831825748
2.292091678058737e-05
-0.1117810786828564
-7.341703471065714e-05
0.1117109444701327
-0.1117599632148618
2.38609644877428e-05
2.515390607270785e-05
0.0001047532899816385
2.792599544321217e-05
-8.018038541540189e-05
0.1116789986851412
2.620608976042137e-05
0.1116844916429276
-8.433422435985389e-05
0.1115175395950754
0.0001526777581562067
-0.1115897404209711
-0.0001173203216725315
-0.0001261005542335919
0.1114788514653515
-0.1115574798207799
4.020890045267793e-05
-0.0001317131797928431
2.735728254303089e-05
2.89515081756871e-05
0.1116546313193467
0.1114262704476694
4.554382184752191e-05
-0.1115142215332412
4.240157593879949e-05
0.1114682289805575
0.0001608978283631676
-0.1115490326449962
4.358686855533251e-05
-0.0001236810324751949
0.1110926737365823
-0.0002212033889948756
-0.0002451048471837949
-0.1112246147936382
0.1108841750223402
9.090956011029914e-05
8.186628479587356e-05
-0.1110569579700869
0.0003071175019943423
0.1109771932542873
8.596348445285105e-05
-0.0002375881037515548
-0.111132686136985
0.0001771679191573844
0.111434135485835
-0.0001363658854523136
-0.000147485388531266
0.1113874628528979
4.682318657516864e-05
-0.0001545261158982637
0.1113231135840369
5.358276646354566e-05
4.956801285655711e-05
0.0001874815614148468
0.111373965617144
5.113057206023057e-05
-0.0001443487701251723
-0.0001601289436865409
-7.163793751753517e-05
0.111781542340319
2.726857160214734e-05
0.000127581591068293
0.1116945499023441
2.455091999437642e-05
-0.0001668196975946332
0.1117582395297329
0.1116016417151471
-0.1116605758535343
3.724577992641682e-05
-0.0002511730632838623
0.11164058485274
-0.1116932208750789
-0.0001079629753257354
-0.0002388169077059218
0.1115420297560767
-0.1116102248989908
0.0001850262966477922
-0.0001225230905924415
0.1114948127136106
-0.1115711369865089
0.0001948854630048615
4.233663818018336e-05
0.1113518047377256
-0.0004311144133265999
-0.0001990434480703913
-0.111438000591862
0.1110371509201612
8.269617958773315e-05
0.0003681893752300386
-0.1111809189730763
0.111267966448907
6.958924962653101e-05
-0.0004619524739994995
-0.1113694965182588
0.1115344678385134
4.319555452356791e-05
-0.0002903668718281801
0.1115811875801693
-0.0001248664756506101
-0.0002750085224572441
0.1114635793905254
0.0002142480677502456
-0.0001430008634129804
0.1114061421364827
0.0002265921050026865
4.95600335023599e-05
-0.0005799949177683489
7.61104034064816e-05
0.1112557628019714
0.0006021897856430096
-0.0002553932116924034
-0.027723227858554
1.754659579807095e-05
0.0002578286338196728
0.02775940510570478
0.0004598718506119588
-0.0002013879176510532
-0.111151955688729
-0.0003653978377327757
0.0009020242313934081
0.027753904818054
0.0277635037621511
0.02776612322772265
-0.0002515010659580839
-0.0002216336044115821
-0.000212956881161486
0.00013369226503971
-0.0002477160757365696
-0.0001238136026613358
0.02774115171745571
0.000256090801600682
0.0274837550473058
-0.000564221740179291
-0.02751782924432678
4.098671715305643e-05
0.0005573092200497242
0.02762125097402193
0.0002639616378559289
-0.0004693066686354402
-0.02763875103530077
-0.0002427601948092486
0.0004656052868747385
0.02757940482493487
0.0006103097151030703
0.000995967093287424
-0.000582463069581655
-0.02756256678025604
-0.0006291215281246912
4.606005715093956e-05
0.0274477915953724
0.000619024922895611
0.0002922572494698202
-0.0005167633312411923
0.02760441145241225
-0.000269660409261153
0.0005110060126202395
0.02718651436073651
-0.001459002003103262
0.0001124766228407778
0.00137579640993236
-0.02721578539040331
-0.001667059807276741
0.02716884870689822
0.0001288196899426003
0.001555905771167579
-0.001531053259076888
0.0004640229649162785
-0.02729195518194783
0.02728920998548476
-0.0003657086096157271
0.001435484100236115
-0.02764789780634152
0.02768545611465366
-0.001316923861057091
8.002356138268822e-05
0.001199341991363927
0.0002932981398861334
-0.02769730814620896
0.02773754132025817
-0.001226278090676553
-0.0002290739432432778
0.001121820719984584
-0.02697826706326406
0.02692397066628136
0.0001499759620303371
-0.001762739372343115
0.0005368510332798353
0.0270802368910038
-0.0004244829150019382
-0.001612405789005415
-0.02711125247935852
-0.0004502741118234581
-0.006545732873596659
0.006508536899752154
0.0004595123379875938
2.79577476823712e-05
0.0001939993028538323
-0.000405374018125297
-0.006613468365314215
0.006587553620983579
0.0004163573055347205
-0.0001790678459313304
0.001151526703160608
0.0007690935363643711
0.0274884229248801
-0.0007428338219595467
-0.001197726172550196
0.001448958735333182
-0.02719048589385801
0.02717267648610557
0.0006274077888825732
-0.001521706083238473
-0.0003920592525428821
-0.00664399154476833
0.00660920249441517
0.0004034010293926937
0.0002174465763349606
0.001080991896589784
-0.001237645110546241
-0.02707745145732007
0.02704819861242673
0.001243514645417882
-0.001057608586561004
0.02760994392740009
0.00109451955941693
-0.0006508956106499639
0.0006773636518991851
-0.02783778193301125
0.02788313565305221
-0.0009621430201393613
-0.0004275975243105272
0.0004517448395023836
0.0008926419849055662
-0.02735502285608592
0.02736079088910911
0.0005447350264062057
0.001362478640783538
-0.02772727491863641
0.02776892847712575
0.0003483254097235236
-0.001170811070074875
0.001074130241733174
-0.0005135934682353639
0.0003284657452110338
0.111401851587706
0.0005351577053530963
0.02778760623387299
-0.0008321469762249228
0.0005321481184693161
-0.1112357701273912
0.0008457293999734116
0.02780100188070158
0.02780108490456453
0.02776021841663204
-0.0002384246299549399
0.0001530281987873563
0.02775637073724575
0.0002503241928153695
0.02765318033241185
-0.0004464647959401853
0.0002810252868083954
-0.02766723231413976
0.0004434531286992395
0.02765507550193828
0.0009161695387454837
0.000624701286983392
-0.02763159175645447
-0.0004900528018728613
0.027640217641754
0.0003100573384058543
0.0004852154035552995
0.02759067998782612
0.0007775186975548382
-0.001086150162644189
0.001048068198088856
-0.0007529345030294265
0.02784664599207744
-0.000781551956917183
0.0007624908232818029
-0.02780060267684468
0.0007259523214305226
-0.0007834184355266604
-0.02761958300331935
0.0007931469586535692
0.02765944427789578
-0.001014414345822409
0.0009648245481216052
-0.001113508747377018
-0.02723237986101725
0.0272282135669179
0.001121265238258194
0.001077401699809331
0.0003209831372887338
-0.0003741220156624152
-0.000249597366922203
0.0004394098224943254
0.1110253360501421
0.0001461818683293104
-0.0001749820266300158
-0.02763704947931483
-0.0001311138734607772
0.0001892937895632929
0.02755169890109755
-0.0001929268050512902
-0.02758725551478022
2.019785387390481e-05
0.0002082835644441837
-0.0002153493847561192
2.22976213935079e-05
0.02751281274991452
0.0002319359338951502
0.02726000361031149
0.0003306497730907871
-0.0004410986843919669
-0.02731651916179397
-0.0002980300288210759
0.0004649944916008704
0.02711558868983968
-0.0005045635694960992
-0.02718848608050116
4.669714123019746e-05
0.0005307629610511816
2.960497569674466e-05
-0.0004221655156420794
-0.006581548386969619
0.0004213003363189072
0.006567620485092482
-0.0004002109515519403
0.00659540440255759
-0.0001161325007437222
0.0001299024844489372
-0.006608367424363426
0.0003994039896524487
0.0003685535958754207
-0.000501593741612209
0.02719916939577431
-0.0003324305484522225
0.0005263049087113862
-0.0005770093721259469
0.02703637345406484
5.216013701509221e-05
0.0006040640545650031
0.0004224273240746317
0.0003847488921631845
0.1110829194381413
-0.0002997226416563439
0.000354279959416407
-0.0004814574467959178
0.1113158483366028
0.02775183361484799
-0.0001074805996312302
0.0005896099840704576
-0.1111068238107603
0.02775255962508433
0.02773957994105377
0.02775048391006147
-0.0001560643040834555
-0.0001307807815550382
-0.0001182265255212592
-0.0002324831606487013
-0.0002027089908332395
-0.0001743950869415815
-0.0001872507913829261
0.02762279910565249
-0.000170123886009012
-0.02765195021046476
0.0001607888164523414
0.000184668042694945
-0.000141926298769727
0.0001583925723356805
0.02773431507177439
-0.0002373723604544949
0.02760959201266365
-0.0002842041242690819
0.0003021305873936314
-0.02762789161709993
-0.0004460916546533791
-0.0001893006607750816
0.0001767734321131601
0.02759222159793877
0.0002044159885530194
0.02729790747598213
-0.0004243765378116866
0.0003595553220397396
-0.02735010348537905
0.0004476669982463091
0.006687053578977904
-0.0003275511970106584
-0.0002071713650264686
0.001283051965916859
0.0008792171144164097
-0.02684414251968931
0.006699610804833709
0.006692329925164641
0.006703855241166155
-0.0003188925759261821
-0.0003165539539838236
-0.0003214577107775892
-0.0001988661328437957
-0.0002026751078808551
-0.0002078080673439688
-0.0003159282486686667
0.0275919290215342
0.000334612869861245
-0.0004910744319701526
-0.0004817118441989551
0.02724196212191747
0.0004003987519806251
0.0005058120421444078
-0.0003641613851440916
-0.0002236878971542861
0.0003686883315650123
0.00666830711831593
0.0002379074113868164
-0.001360170567732863
0.02740032172168686
0.0006879004234408472
-0.02737284138352514
-0.000633684388479669
0.001278474194613717
-0.02755571322171145
0.0275926697949725
-0.0007625126893852461
-0.001104633471082443
0.001046771151670862
-0.001191020174388997
-0.02711532396436526
-0.001089391005013549
0.001181783193168587
0.006779156060124592
0.006774267002596409
0.006778119392305743
0.006768900748180742
-0.0002631597687235928
-0.000294653785288185
0.1109375901659178
0.000111343790638912
9.908762131925585e-05
0.02766550222579208
0.02766878455713672
0.02766840716970551
0.02767104232663301
0.0003670751678188727
0.0001039425765780545
-0.000284599830515048
0.1107907753403267
0.0001516638903752316
-0.02761720370859811
-0.0001359849357420644
-0.0001588277454331653
0.02752639681807153
-0.02756511482722311
2.095176139233824e-05
-0.0001751625163753035
0.02742394320778279
-0.02747592290011538
2.817017874040079e-05
2.380775313223167e-05
0.02749649536485694
0.0001727943507695926
-0.02753995853168681
2.554700086328382e-05
-0.000154878184805623
2.317306725525009e-05
0.02748380236815117
-0.0001959299282361361
0.02719173987954594
0.0003495193671652359
-0.02725787088713955
-0.0003151208953365538
-0.0004093661486413889
0.02703383943746652
-0.0271186443783681
4.940487150628418e-05
-0.0004691639666821478
3.179442791818335e-05
0.02736557626425562
2.657085363246869e-05
0.02667029733493226
8.218694125593755e-05
-0.02681315283192973
6.067021635391409e-05
0.0001918402492065173
2.867074393339953e-05
-0.0001720978352435874
0.02744808220693325
0.02688890105050901
0.0004290233274301991
7.133903239905789e-05
-0.0003871269268196741
-0.0270021364835168
-0.0001218309232985494
0.0001362588890518159
-0.0003985499836965909
-0.006573994088828879
0.006047364376708665
4.571245474695357e-05
2.263027685597772e-05
-0.00611569615743799
0.0003909887133386851
0.02711944346510462
-0.0003527508092549114
-0.0004675352312845692
0.02694036623518024
5.537748260195903e-05
-0.0005389135487853197
0.02650571589584796
9.580926194273144e-05
6.877518461551631e-05
0.0004867314765648363
8.274320445011541e-05
-0.0004394278269235686
0.02675885419639237
0.006103749453495029
-0.0001794457467401055
4.326911679036204e-05
0.0002012127659959672
-0.006168785589542578
-0.0005056330337179121
-0.0002351127360261338
0.1112541474679143
9.962535417880266e-05
0.0004384201858809963
0.1108661805478322
8.257012361468796e-05
-0.0005451837092058944
0.11115058511672
-0.02770030294251695
1.855508640894333e-05
-0.0002523355285039242
0.02773577246817673
-0.02770593572761586
-0.0001167982089771632
-0.0002219070488797633
0.02760115965341375
-0.02763148508258681
0.0001662632585552854
-0.0001543978250091464
0.02751554126457228
-0.02755671787901748
0.0001891403284196209
2.483063676540923e-05
-0.0001288112865071291
0.02771848628665607
-0.0002435449065003813
0.0274188537918573
-0.02746082718657884
4.440319072121728e-05
-0.0005666515361870137
0.02757379388482269
-0.02759615935079779
-0.0002617320354273423
-0.0004694132915431762
0.0001833561511962532
0.02756792680474414
-0.0001719708926737244
0.02723320928059585
0.0003799441379820695
-0.02729440369664533
-0.0003936068925926229
0.0002097783348663627
2.783041095269797e-05
0.02746977276793624
0.02694660935504289
0.0004658313593897787
6.845225158857934e-05
-0.02705186963862104
0.006644223892933639
-0.0002228689484431555
0.0002362677563237513
-0.0003367792245119545
-0.006648394673319825
5.014146982033545e-05
0.02737366148650512
-0.000634070692603588
0.02755150641208407
-0.0002919503105819235
-0.0005184537966349201
0.0001291906444516607
-0.00152830187552881
-0.02703815783533274
0.0271665601596093
0.0004246325533667541
-0.0004487065632555103
0.0005280573323574027
7.924279196445473e-05
0.02682604070725999
0.006499193170964598
0.0004091665643541553
2.646445648691275e-05
-0.0004143172398749439
-0.006520506951930468
0.006467751668815735
2.957292832848031e-05
-0.0004484055380436893
0.0002058070828279311
-0.006577131288358799
0.006555927544870208
-0.0001871316389234792
-0.000402845718566859
-0.0003656055821889499
-0.006271849792975398
0.006214061607047804
0.0003830583289035558
4.033543921194271e-05
-0.0003280983648159952
0.000276571316757561
-0.006389019499945858
0.006347942558140788
0.0003434194002005907