/*--------------------------------*- C++ -*----------------------------------*\
  =========                 |
  \\      /  F ield         | OpenFOAM: The Open Source CFD Toolbox
   \\    /   O peration     | Website:  https://openfoam.org
    \\  /    A nd           | Version:  7
     \\/     M anipulation  |
\*---------------------------------------------------------------------------*/
FoamFile
{
    version     2.0;
    format      ascii;
    class       volScalarField;
    location    "0";
    object      Phi;
}
// * * * * * * * * * * * * * * * * * * * * * * * * * * * * * * * * * * * * * //

dimensions      [0 2 -1 0 0 0 0];

internalField   nonuniform List<scalar> 
12676
(
57.3413542068344
56.00806775419563
54.67483042294064
53.34164689234585
52.00852470645778
50.67547499658664
49.34251362272214
48.00966294358386
46.67695457203086
45.34443373161899
44.01216632047954
57.34133201464886
56.00804450387573
54.67480496331483
53.34161787195988
52.00849043453401
50.67543324670233
49.34246133857237
48.00959577839492
46.67686614191846
45.344314360138
44.01200077415167
57.34132896067266
56.00804129791712
54.6748014390545
53.34161383205091
52.0084856286252
50.6754273398998
49.34245386347013
48.00958605876456
46.67685316508852
45.34429654610512
44.01197550806085
57.34130703672516
56.00801834105411
54.67477632714644
53.34158525120267
52.00845194083156
50.67538639716545
49.34240273073652
48.00952058305916
46.67676728665246
45.3441811870222
44.01181680101097
42.34743288161097
42.34723354991094
42.34679718957979
42.34700774069033
42.3465917590274
42.3471375618598
40.87884421758893
40.87858918448236
40.87796946408792
40.87872403516361
40.87847394064224
40.87786419949732
39.58154606258745
39.58138976530295
39.25725454416534
39.58043548898141
38.28384958962732
39.58136274709154
39.58120961784941
39.58027409616503
38.28359224623814
37.95990204531559
35.69574133882205
37.95961055979276
39.25722371566959
37.96158611089639
35.7014959904506
39.25705171110276
37.96130325320297
39.25743031248352
37.96193193999552
35.70257903608475
37.96164109720563
35.70045273512952
35.3729817917803
34.16867443939174
35.37973891303678
34.17529701099086
31.76582982738521
35.38104158145849
34.1765700595715
31.80275910776882
35.37851295507407
34.17029621223831
31.77032139733566
31.71505036316623
40.87868995726546
40.87902826162274
40.87887011082586
41.85233924375005
41.85222185893624
41.85208508400508
41.85220440923533
40.87815570312925
40.87876658449431
40.87831964161563
41.85214680894661
41.85201054086307
41.8517505828309
41.85126476924781
40.87813017580629
41.68929989832363
41.6892164229264
40.87857255709437
41.8519997466744
41.85211783491647
40.87804738338123
41.85192750988537
41.68933686329039
41.68904972256514
39.58207551061345
39.58182832804383
39.58178560645662
40.55448724707843
40.55431607721792
40.55469235618875
40.55451646398767
39.58071821110186
39.5816670946411
40.55420419985502
40.55372112363819
40.55440142483906
40.55390490403037
39.58097483450407
38.28538191192546
38.28429908917516
39.25650132490417
39.25756729737022
38.28584049226779
38.2847148636907
39.25678944678565
40.55351558251375
40.55369453113873
39.5806836272174
39.2561852322488
38.28424805190041
39.25646326368739
39.58159738567411
40.55435352524403
40.55418552295904
39.58055135370898
40.5540757880452
40.55360083152117
40.5533984598314
39.25600468889804
37.96035434284916
36.98936849714575
36.98869173392502
35.6969726313578
36.66598840952718
36.66520791670848
36.98825901450793
35.69496614500441
36.66471048310089
38.2853347204788
39.257487587948
38.28571753601724
37.96202263197432
36.99120068534585
36.99186402324651
35.70025791768002
36.66809564444865
36.66886511223712
38.28508624792074
38.28403070184962
39.25631429517708
37.96010587422762
36.98898713529828
36.9907733973744
35.69946937461187
35.69624568022959
36.66554411931666
36.66760115255741
38.28563694427249
39.25802773833185
39.25774893773151
39.25770001522693
38.28610582828174
38.28602996756725
38.28651489086096
37.96246976631081
37.96238091283151
36.99173327191843
36.99242008763887
37.96293836205093
36.99329310066073
36.99256896316924
35.70127991035037
35.70430511769485
35.70291340098024
36.6687169503327
36.66951582822199
36.67054114488127
36.66969547232901
37.96041066707771
37.96216634298811
37.96088388700805
36.99015885436728
36.98944388947987
36.99129103289481
36.99210291428708
35.6970783694149
35.70202381925029
35.69840321882975
36.66689892664067
36.66607116094092
36.668203774291
36.66915242228905
35.37442981349143
34.32916220836876
34.40624601685207
34.16533435892713
33.04925554793182
33.04242170059813
31.76429244233479
32.89003931987386
32.88240893819494
31.78171842556078
31.62422524145279
31.61934142525714
31.59924740184288
31.59619804841887
31.63388532275806
31.62821296820654
31.70632475052005
31.69659574404772
31.61119382676721
31.62470321759166
31.6940594403405
31.63245960884754
31.60452224488482
31.58663691575475
31.61630765582451
31.59428040815369
35.3720748060193
34.40474291358861
34.16446040554153
33.04069616869817
31.76030271101743
32.88049843566811
31.60616609525594
31.59112053927814
31.60483244002923
31.6253932444532
35.37827140703503
34.33523109765538
34.33837231250914
34.1787624705978
33.06195766311187
33.06915418043508
31.79174337146922
31.78579957377955
32.90403764141589
32.91207076971597
35.37734166277527
35.37356245606563
34.40715327035527
34.33438425096875
34.16584162409944
33.04328258754174
34.17436251821732
33.06004217458357
31.80504420377022
32.88333736623674
32.90190257199364
31.69241484398961
31.62200470397345
31.60937087868179
31.63184390606622
35.3794942346996
35.38312336935426
35.38146222051958
34.33637496438178
34.33963348519843
34.34446032071132
34.34075254429725
34.18017022087108
33.06484114768789
33.0724525387779
34.18559058074312
33.08588594812114
34.18146250217852
33.07652983024991
31.79103177019639
31.85298862184568
32.90731658458784
32.91584270981343
32.93138215546166
32.9207596425026
31.84359230518026
35.37454210741637
35.38039896830927
35.37610979877169
34.3306417276922
34.3274456029135
34.33549635977403
34.33975152874368
34.16676940379644
33.05252415233544
33.04514044548395
34.1755999866077
33.06281634560334
34.18035115176075
33.07404445323695
31.7741571500129
32.89368390437259
32.88540260701071
31.79017196672466
32.90505154613382
32.91793995595417
31.78684298267155
31.71154216480148
31.70129266391335
31.74569026884316
31.73187444034788
31.77287174876552
31.75635518141495
31.74992607200354
31.73567567771983
31.69992512491909
31.75203889250259
31.73194820317596
31.69717568762057
31.69860203155009
31.63962944738378
31.72825915646177
31.77509916885586
31.75837221137555
31.71654176407183
31.75400086735351
31.63971024618762
31.70938374358965
42.34736533865005
42.34728815325258
42.34735510037439
43.01320137391087
43.01314447686448
43.01326557585461
43.01320837005355
42.34715785663116
42.34703969476485
42.34696453513586
43.01303873482132
43.01310144517473
43.01293797940404
43.01287754223377
42.34672731293578
43.01273757939983
43.01267950682352
42.34682724108534
43.01291885410921
43.01276230084547
43.01256844793832
42.34720305448928
43.013078076225
43.01302237347724
41.2033112694907
40.87881825524175
40.87893568998102
41.2032525911858
41.2032290663885
40.87890941052848
41.2033350146194
41.20298725514095
40.87846540379591
40.87867727448145
41.20302124061126
41.2031012108225
41.20290862212964
40.87855171698659
41.20235503211292
40.87776637245144
40.87804945464187
41.20246259598229
41.20253430204698
41.20228043047086
40.87784529324166
41.20298798164323
40.87869850699186
40.87857661432297
41.20314420845916
41.20312099538491
40.87855163872338
41.20301083428495
41.20269227434575
40.87833277345856
40.87835283608781
41.20291755447919
41.20280860080578
41.20279051326739
40.87821584861933
41.20206446582858
40.8777335103365
40.87766274851893
41.20237073738482
41.20218530174555
41.2022508376117
40.87753458542319
39.90596966040757
39.58168608182201
39.58166505929891
39.90573748219503
39.90586200978623
39.90584354347098
39.5818069498836
39.90554690470709
39.5811981001519
39.58152734427801
39.90559807828029
39.90572053135156
39.58133271679558
39.90542696699948
38.93312975679059
38.9332011843751
39.2570392354046
39.25740962148069
39.25719079031986
38.93295856351211
38.93337659379306
39.90457454918533
39.90474411246906
39.58012829147638
39.58055863810395
39.90485438382309
39.5802469382317
39.9044680633837
38.60762168088304
38.60788496843964
38.28404691455041
38.28336544364385
38.60805951973083
38.60745468815936
38.28355371840092
39.90547622835317
39.58147931386728
39.58113886607264
39.90557428994393
39.90567828332001
39.90537473046655
39.58125249950375
39.90507736297262
39.58102179809473
39.58098956129645
39.90543758235344
39.90526973485446
39.90524127281759
39.58080638711231
39.90415723848562
39.58007675400835
39.90459943029212
39.57997276988684
39.90432833386225
39.90442227627375
39.57978256714883
38.60697083828261
38.60765701575399
38.28327949710442
38.28311980785054
38.60723653186201
38.28282114095487
38.60737951078647
37.63567534149421
37.96012588296273
37.63605221111926
37.95935566264794
37.95956861220215
37.63543367797984
37.63630704047173
36.01798452651478
35.69634634720478
35.69434245594714
36.01871355562852
36.01750372272068
36.01923142331722
35.6949009903804
37.63473858435616
37.9592569809263
37.63572091144623
37.95907823407058
37.95874152061811
37.63511933873427
37.63531986393805
38.93302496561337
38.93316583800863
39.25735476019478
39.2569717634666
39.25709932434894
38.93288134829216
38.93331362060209
37.63772703526069
37.96180250746482
37.63796851979174
37.96116743400152
37.96137646859251
37.63748844088113
37.63821611701913
36.02239137784218
35.70128493347915
35.70021635981107
36.02363835843656
36.02345950169634
35.7000175309898
36.0225607392863
38.93246241173538
38.93297204170051
39.25684097283497
39.25680430134664
38.93273488518638
39.2565990822584
38.93269297958174
37.63679764443572
37.96095853177324
37.63764528757487
37.96089413216455
37.6371768756898
37.96056095226053
37.63725199398945
38.93373227729078
38.93339948402122
39.25758829117363
39.25756424429897
39.25772444899371
38.93357836907946
38.93355072362192
37.63893326852543
37.96219792269849
37.96215448995132
37.63836598803041
37.63862113262822
37.96242524911622
37.63867225207999
36.02506152158671
35.70235763572841
35.70342727957001
36.02454599238245
36.02435908404738
35.70319833872746
36.02525456882058
37.63791739559976
37.96128673477852
37.96190088260896
37.63803297726421
37.96153903958597
37.63762790179834
37.63833163436573
36.02252182460244
35.69946056114684
35.701223236478
36.02274614867954
36.02190192781897
36.02339417988438
35.70019471450998
35.04933142628134
35.37369230109788
35.05045993068273
35.37135790664338
35.37200969486696
35.04856712753823
35.05129911046124
33.68071703778197
34.16794080430952
33.68798216502108
34.16371530274605
34.16307850309448
33.68696246823195
33.68154481979995
31.29515401632787
31.30306987265687
31.30618421318608
31.29256246650331
31.37417571275835
31.31455056239102
31.31828147926672
31.36751241453189
31.30822203505098
31.29248708223008
31.29864715200778
31.30108263440498
31.28124088956929
31.28434771063797
31.28962569249201
31.27673878468767
31.2867603736833
31.2862203138334
31.2938691674561
31.2799997353683
35.0563091439636
35.3794882410755
35.37820866532977
35.05843420906044
35.37797393162214
35.05813428233749
35.05658917582036
33.85228491636136
34.17748926785662
33.69667536506537
34.01071897606478
34.01222209509211
33.69069933921482
33.699641891247
31.75636796385288
31.76483551353072
31.78315314144327
32.08090170317595
32.24448945155592
32.07731447271195
32.25716834712217
31.3531620694711
31.35763711849482
31.34318170711581
31.36948718608241
35.06093563578453
35.38077738195057
35.38206604949983
35.06001488779741
35.38179251186754
35.05969664717711
35.06127177852194
33.70622113210541
34.17884700289641
33.69845317721442
34.1796321893267
33.70155414213128
34.18211703714856
33.70278469802992
31.79244333452264
31.82666403000369
31.82846109119692
32.34785376374315
32.29537388741881
32.29233196480305
35.05664008442055
35.37734130725261
35.37943588527111
35.05698364046906
35.37821557413768
35.0555975427805
35.05810039885368
33.69517861946365
34.16950886228535
33.69014511472195
34.17497981263642
33.68905781655004
34.17405588470491
33.69647118617173
31.78221995714064
31.80600804362495
31.78932196058084
32.27210837296441
32.24769017181568
32.25587997703978
32.26132781183422
31.4293955525359
31.39919812224611
31.40873101387492
31.41807774629437
31.47469725450653
31.44608744461195
31.45995587109156
31.45967659576161
31.50245283070232
31.7095299992598
31.48818588056307
31.73184055692929
31.72551961669038
31.51000901746952
31.48168668004673
31.397764236847
31.39526677747458
31.38195496245174
31.41342777951771
31.50391991169931
31.51013228201917
31.45301458128643
31.47617964588662
41.20326405538731
40.87876664096967
40.87877946687556
41.20311264286786
41.20319373751189
41.20318230857978
40.8788571486704
41.20336649458897
40.87899728453093
40.8790016641281
41.20341821633875
40.87897079322294
41.20339422969158
41.20339039957692
41.2033189618839
40.87883977283987
40.87894876202463
41.2032755181685
41.2032481762227
40.87891810408426
41.20334653436636
41.52781018516894
41.52785680808992
41.85231929462805
41.85231698227943
41.85229706290875
41.52783508264248
41.52783184939533
41.52776729590638
41.52772766673063
41.85228091271391
41.85219974052033
41.85225888861535
41.52770301748649
41.52779206217703
41.52771785162573
41.52757930013134
41.85215643488068
41.85214709793864
41.85221498990394
41.52765383931692
41.52764360094787
41.52776050519993
41.52770749184081
41.85227254245981
41.8521844690173
41.85225282497078
41.5276860345517
41.52778204408848
41.20285460955601
40.87832032928509
40.8782368993623
41.20263593222928
41.20270448143111
41.20277862506812
40.87840447747567
41.20304009746172
40.87873668197504
40.87863931072861
41.20318199104699
41.20315496569842
40.87860996640126
41.20306673957635
41.20290579568425
40.87829187697877
40.87848984021591
41.20277825129245
41.20275326500505
40.8784612232497
41.20293175528327
41.52751288055477
41.52764307167777
41.85212505820977
41.85204686654436
41.85202306719114
41.52761859470762
41.52753751135534
41.52746433877987
41.52749552989585
41.85208243374598
41.85188520735763
41.85198057159045
41.52756980805494
41.52738817325903
41.5273909526446
41.52727666135988
41.85193633699518
41.85171045212414
41.85191155791623
41.52725352433174
41.52741519531509
41.52734420035872
41.52717378159979
41.85176291452028
41.85167262955247
41.85187032290997
41.5272096309596
41.52727250912523
41.20239952377076
40.87810320223425
40.87792334468148
41.20260708963399
41.20258295206168
40.87789726632666
41.20242248195629
41.20294278849693
40.87864779686228
40.87842865060825
41.203006457678
41.20307492762313
41.20287568662833
40.87850208525384
41.5274244089863
41.52748257938144
41.85206162577526
41.85185821754592
41.8519447876149
41.52754640113347
41.52735854646456
41.52746643655775
41.52760973798254
41.85209827151755
41.85200405180446
41.8519821214829
41.52758844259539
41.52748797719516
41.20256281446434
40.8782095397301
40.87791426206567
41.20253694180155
41.20267680823314
41.20241711415946
40.87807521243288
41.52722949153557
41.52740191594579
41.85179482880389
41.85176822690735
41.85128881220041
41.52730165395322
41.52728388985614
39.90612803661138
39.58203386288761
39.58202654807518
39.90620832625779
39.58198511962404
39.90617129192586
39.90616488608467
39.90605479452417
39.58178066203585
39.58195110942449
39.90598841175649
39.90594606702668
39.58190280097907
39.90609768271916
39.90604217492816
39.58174525078479
39.58192940289813
39.90595092597595
39.90591498379711
39.58188840827685
39.9060786580457
40.23026859893289
40.23018731103031
40.55445843496108
40.55458912146123
40.55455991829439
40.23015519099276
40.23030118005733
40.23020382580271
40.22999650887002
40.55440115437376
40.55441558696366
40.55450185097921
40.23010763018683
40.23009133711426
40.23034510376392
40.23041667652836
40.55465779355417
40.55466276081545
40.55462832908285
40.23038362848263
40.23037799554307
40.23027971160433
40.23022034599024
40.5544826865502
40.55460390769192
40.55456973786021
40.23018259530141
40.23031792507437
39.90534313008725
39.58097337430592
39.90499767139062
39.58084555667794
39.58110456106293
39.90511146664946
39.90522609506117
39.90562784576993
39.5816202667865
39.90584481596082
39.58146943580046
39.90580318166429
39.58142362614559
39.90566861593688
40.22982579922586
40.22987181201253
40.55406674590879
40.55430212153435
40.55416273082648
40.22998113964097
40.22971864464888
40.22964332631029
40.2293337113574
40.55390519459115
40.55381241870755
40.55399896788218
40.22943561848004
40.22953866118401
40.22989808046104
40.2300920376146
40.55436817012166
40.55426008342423
40.55422747846247
40.23005489526282
40.22993447903497
40.22971390138417
40.55387393343252
40.55409401344848
40.22953887590768
40.55406218154337
40.22950430268785
40.22974943539868
39.90542209405627
39.58093152461466
39.58123776900979
39.90522687601116
39.58119313888542
39.90518822438218
39.9054618632696
38.60915953037255
38.60923976394552
38.28507071186851
38.28560888947882
38.60896546313298
38.6094389065585
38.28529154544503
38.60883344299494
38.2847080198462
38.60828348618287
38.28450495523532
38.60846514676199
38.60864523906629
38.28492177045278
38.93284119737449
39.25678712587924
38.93235383381099
39.25664422955271
39.25693460051578
38.93251469141704
38.9326748831225
38.93324556192392
39.25751444615253
38.93355513369195
39.25734485990153
39.25729322026497
38.93349526768814
38.93330397576528
38.6092909361228
38.28576276927463
38.60964184289215
38.28551683263758
38.6095737696584
38.28544123428545
38.60935725804881
38.60896085558349
38.28464443817762
38.28513977880537
38.6086501477869
38.60858810431336
38.28506662892657
38.60902515505991
38.93295368349605
39.25674078087786
39.25708449345818
38.93267832297723
39.25703425695568
38.93262346679285
38.93301041747335
40.2289528647329
40.22910572081989
40.55329094565315
40.55360458029799
40.55337756512368
40.22920470423398
40.22885700525639
40.22901739296475
40.55366444057285
40.55346478402209
40.22930492680523
40.55343562785253
40.22927138053954
40.22904984546383
39.90464634184908
39.5806417576615
39.9049661832437
39.58036733202569
39.90492874560861
39.58032700500222
39.90468247998619
38.93176449728364
38.93199943383841
39.25584245791732
39.25632314768364
38.93215434699115
39.25597503522097
38.93161592468079
38.60773465663056
38.28418057614036
38.28374556570711
38.60823723203632
38.60817763845097
38.2836812137941
38.60779164685626
38.93186492301385
39.25641631096578
38.93231189313953
39.25610969687428
38.93225908140222
39.2560645754896
38.9319155553552
39.90554457954088
39.58155785994526
39.58136758217488
39.9057835626282
39.9057483250144
39.58132905878561
39.90557896474863
40.22982443456075
40.23003797551995
40.55432523418172
40.55418970715333
40.55416206110696
40.23000646020455
40.22985521398701
40.2297632495568
40.22985077546522
40.55426900558502
40.55402559101988
40.55410713026937
40.22994381183693
40.22967237714337
39.9048847861617
39.58080152497439
39.5803473768359
39.90484839361743
39.90507261925711
39.90466564343598
39.58059150002576
40.22940590605543
40.22972842460761
40.55391844369731
40.55394090384286
40.55378676170631
40.22957808037196
40.2295528458621
40.2292329157572
40.22919983429245
40.55378199024776
40.55345307178356
40.55363104376509
40.22940127084217
40.2290356786564
40.22857666070684
40.22897567390746
40.55325439869447
40.55317700712346
40.55303700490037
40.22873106868205
40.22881617809491
38.93118456878673
38.93179687448352
39.25578423384338
39.25566885931924
38.93142159815572
39.25545681913267
38.93154989554778
37.63583935027258
37.96027766769096
37.63656750581986
37.95978587581072
37.95971296768712
37.63648004698339
37.63592224234537
37.31207099028536
37.31290057805764
36.98925331298033
36.98852822226307
36.98841986544085
37.31280042037464
37.31216558062961
37.31188397978686
37.31231124091297
36.98902584719088
36.98789127287762
36.98820582077289
37.31160877323285
37.31260245251254
36.01831342603402
35.69676147170879
35.69547856651445
36.01976605522235
36.0195859404427
35.69528388986231
36.01848045061011
36.34152497386056
36.34278002975418
36.66585535396607
36.66502409774203
36.66489946713718
36.34262560556878
36.34166893268691
36.34124116985571
36.34187583614891
36.66559285662996
36.6642926271619
36.66465350909522
36.34082548254145
36.3423212879351
37.31081952477406
37.31193332649427
36.98773769486741
36.98748363021379
37.31125142712938
36.98699212528961
37.31147688827294
36.01614582449625
35.69404451906424
35.69362597067106
36.01804789051346
36.01688508574126
36.01725339825877
35.69277294531006
36.33964622454698
36.34130164299486
36.66411286676782
36.66382593701506
36.3402891986818
36.66326473869148
36.34061394498789
38.60903887076951
38.60919903149897
38.28552458991698
38.28496806581243
38.28515187989885
38.60887666473869
38.60936624602823
38.93312184537415
39.25744311284439
39.25722860150572
38.93346353081768
39.25718531726184
38.93341332327451
38.93317062769013
38.60914836659552
38.28565287704657
38.60953601266262
38.28533863701156
38.28527605602175
38.60947913892331
38.60920352428489
37.63788849373488
37.96194884042625
37.6384682550851
37.96158905907367
37.96151779821454
37.63838370093267
37.63796994751483
37.31422024237334
37.31449977284176
36.99152893002501
36.99056089516031
36.99087542186139
37.31394685344959
37.31478423888959
37.31440542486288
37.31507426595359
36.99175155740616
36.99119641528399
36.99108869220064
37.31497696725383
37.31449890154526
36.02205686208278
35.70086854307476
35.69904960806665
36.02258745914284
36.02156528421222
36.02310627127381
35.69962537471042
36.34476534205236
36.34521331162439
36.66847613669555
36.66735166982035
36.66771505558317
36.34434365645849
36.34565649044053
36.3450519441342
36.34611024316036
36.66873450139616
36.66808641837768
36.66796173465219
36.34595780423482
36.34519691693922
38.60840429241453
38.60897997086653
38.28478298307302
38.28472746469555
38.60871223751413
38.60866412334403
38.28443372501863
38.60810079435204
38.28442944200617
38.60804632341745
38.28370467654358
38.60839960306125
38.60775771990612
38.28409117312655
38.93219268883425
39.25659415987789
38.93214355953737
39.25608598637067
38.93245753069229
39.25635867031566
38.93188726196136
37.63635699781814
37.96055737794212
37.95973633984725
37.63628223094707
37.6358619134507
37.96017308298996
37.63679520193004
37.31265477105498
37.31257154029538
36.98843726670577
36.98965638459907
37.31209170953503
36.9890798170155
37.31315639349594
37.31315711401238
37.31412891892231
36.99025538828064
36.99015132027181
37.31359032982554
36.98965456102201
37.31367846936247
36.02016112384065
35.69830522544229
35.69852234409062
36.02191578790251
36.02092845436226
36.02110703861887
35.69741057969955
36.01928033854358
35.69525695694708
35.6974395422051
36.01915285428093
36.01830466227722
36.02017944122074
35.69638686033192
36.34237437852638
36.34225958711689
36.66491146711421
36.66631286331749
36.34152864362249
36.66564730747135
36.3431461204157
36.34313532108364
36.34463838771565
36.66700291460807
36.66687921857728
36.34379634932229
36.66630735041468
36.34394441937463
38.60984217667269
38.60946424448878
38.28586900217066
38.2858318613469
38.60966757677335
38.60963562408828
38.28606782920384
38.93396021935419
39.25798073562341
39.25797234279884
38.93407606677404
39.25792560190676
38.93402282574813
38.93401314553896
38.93385513277979
39.25769508848614
39.25788737475049
38.93376047169381
39.25783275979173
38.93369940827741
38.9339171157266
38.93383613245106
39.25765455295836
39.25786248912978
38.93370416041059
39.25781626573939
38.93365276963712
38.93388843678508
38.6099820886393
38.28602634798959
38.60987481372003
38.28630867586637
38.60980529439402
38.28622784287202
38.6100527196922
38.60996008000573
38.28596357594623
38.60980964375207
38.2862699330794
38.60975134251873
38.28620219907916
38.61001948516232
38.61010148091145
38.61023340500056
38.28644577634314
38.28643267465628
38.28636402462548
38.61017286634269
38.61016163839133
37.63914547844846
37.96237848945898
37.96270201294443
37.63898577011937
37.96260907975204
37.6388804434225
37.63925284626492
37.63910998379635
37.96230500553703
37.63888100600372
37.96265656146566
37.63879385229902
37.962579011666
37.63919915985198
37.31561414300851
37.3149587269309
36.99207309629845
36.99214543490212
37.31525250976956
36.99249431204116
37.31531309427412
37.3158181668202
37.31555209815423
36.99230362047894
36.99285059563707
37.31545158496598
36.99273100509285
37.31592118572833
37.63932492799589
37.96285912026701
37.96284373328371
37.63952494719489
37.96276506108989
37.63943368450305
37.63941548787636
37.31606778757205
36.99314423947914
37.31629981130874
36.99317028230283
36.99302250957459
37.31619420375919
37.31617252281296
37.31586037317487
37.31567650600302
36.99242649834105
36.9929272116771
36.99278158787354
37.31555434431063
37.31598506631619
36.02467995157289
35.70192063740816
35.70208104200078
36.02344776009745
36.0239899051473
36.02411946051931
35.70274547682266
36.02554322445287
35.70400797740258
35.70406798776647
36.02598734078062
35.70377562911965
36.02578797599808
36.0257401717635
36.02515344071048
35.70263242706657
35.70360158721183
36.02481497461838
36.02458044202351
35.70331289717742
36.02539421711834
36.34698525935026
36.34594221306339
36.66911194117332
36.66919901021068
36.34640369526629
36.6696053620411
36.34650940667225
36.34730884119093
36.34687628064808
36.66938020244018
36.67002090090286
36.34671751167955
36.66988136216765
36.34747252308835
36.34771364129532
36.34808798829302
36.67036600819742
36.67039756856816
36.67022379773611
36.34791925592433
36.34788063211862
36.34738342804739
36.3470950201966
36.66952835070717
36.670113586008
36.6699425017245
36.34689772630601
36.34758570549567
37.63743657082374
37.96087448884563
37.96064481756382
37.63662964788507
37.96111818999997
37.63689699591093
37.63715758903343
37.63811411024636
37.96207721494342
37.96179679631052
37.63863730189166
37.96171026143856
37.63853461960788
37.63821360749719
37.63762609347476
37.96080364167925
37.96136708889074
37.63717036561159
37.96128353545846
37.6370785615184
37.63772193807345
37.31411118369802
37.31358948787406
36.99003711555433
36.99088639013681
37.31348401014207
36.99075850757642
37.31422162729917
37.31389298002679
37.3129690809801
36.98979676930906
36.99013563500564
37.31327557473523
37.31357223097661
36.99050609170371
37.31444455804725
37.3145758222574
36.99075509465624
36.99169150284433
37.31411088577926
37.31492079109844
36.99114154296197
37.3146716200349
37.31527448348938
36.9915384184632
36.9919645358698
37.31515559780019
36.99140494356552
37.31478656767997
36.02152263604398
35.69832711461228
35.69772894816888
36.01986430216357
36.02041829206767
36.02093434241057
35.69902114702614
36.02294703507955
35.70175352460863
35.70095733968057
36.02406510179291
36.02383885190397
35.70069988418143
36.02316334562081
36.02192592891902
35.6981757645339
35.69974128806512
36.02099072598573
36.02079781294744
35.69949825490264
36.02213101693984
36.3446362608985
36.34383357152227
36.6667577408327
36.66773998930393
36.34366898883115
36.66759114828709
36.34481045606727
36.34429322722791
36.34287047967425
36.66647929030625
36.66686773735081
36.3433447743185
36.34379167183173
36.66729768170666
36.34514829800385
36.3453437512288
36.66758319368095
36.66867117638049
36.34462173644484
36.34589241383249
36.66803306351169
36.34550860139374
36.34645876920408
36.66849608653661
36.66899043401386
36.34626797050574
36.66834025029259
36.34569161739142
35.04985801048321
35.37418104463248
35.0521717419295
35.372685539628
35.37245759224562
35.05187786278838
35.05012604630066
34.72751088859009
34.73023516234039
34.40827343389548
34.40582174017019
34.40544338712863
34.72989094484986
34.72782734123141
34.72688830091355
34.72820340573428
34.40744032931722
34.40363325699594
34.4047023416138
34.72598728665886
34.72920104092404
33.68017954779395
34.16745207131468
33.68349337770481
34.16071493747688
34.16267658139029
33.67788562333359
33.6863006337334
33.52005961852595
33.52804361726152
33.04767644973701
33.03977674455493
33.03855804072478
33.52690984326674
33.52096901458553
33.51946965131601
33.52307255973543
33.04666057562573
33.03446538858412
33.03777132123359
33.5169611317989
33.52617564413311
31.7479040881922
31.77477766964728
31.75490735685311
32.23604123207861
32.24324238392357
32.23073473616241
32.25063356144472
32.39750268214711
32.88826704901616
32.41367947577785
32.87955399378216
32.87820664372778
32.4111339074689
32.39933433901465
32.39633153382397
32.40292417975157
32.88712981082583
32.87370730822647
32.87733870872339
32.39150498771572
32.40951575385859
31.77744592664745
31.75941440212038
31.7566513697295
32.23733638877277
32.25534936663679
32.25246197636086
32.23936787998847
31.28520019472872
31.27448860414073
31.27628199747006
31.28304551816392
31.29694965307796
31.30943498097227
31.30834855460256
31.29786465135084
31.28668915480147
31.27814830730178
31.27751788760151
31.2874493060595
31.45580820370449
31.46683554124713
31.62338290343932
31.6152085365006
31.61448775915255
31.46587262607814
31.45662207274629
31.45421278536678
31.4612533531797
31.6217325011959
31.61102329634831
31.61307427933626
31.46398380308099
31.45190339172602
31.44661608741986
31.43886279368177
31.60687927447065
31.59872407872327
31.60626454468479
31.43828660781887
31.44730139634516
31.44527238798835
31.43551161175522
31.60330389245257
31.59769583744703
31.60505797275149
31.4371557522022
31.44332325580099
31.38088200739388
31.3927781436602
31.37369826453815
31.40170610745289
31.37568839489361
31.35795742703771
31.32090026585362
31.37807441088355
31.38255191897829
31.40707542049527
31.40381726603313
31.38513973318452
31.45247488193388
31.47791479423123
31.63290471243521
31.64409914521199
31.47677282776372
31.64296599853688
31.45466879469286
31.4858396836372
31.47133582508867
31.63098814570549
31.63755530554884