/*--------------------------------*- C++ -*----------------------------------*\
  =========                 |
  \\      /  F ield         | OpenFOAM: The Open Source CFD Toolbox
   \\    /   O peration     | Website:  https://openfoam.org
    \\  /    A nd           | Version:  7
     \\/     M anipulation  |
\*---------------------------------------------------------------------------*/
FoamFile
{
    version     2.0;
    format      ascii;
    class       volVectorField;
    location    "0";
    object      U;
}
// * * * * * * * * * * * * * * * * * * * * * * * * * * * * * * * * * * * * * //

dimensions      [0 1 -1 0 0 0 0];

internalField   nonuniform List<vector> 
12676
(
(0.9999824197395397 8.535166591965133e-06 9.140851661663275e-06)
(0.9999464189601536 8.942325414771982e-06 9.578997384777831e-06)
(0.9999078231936636 9.792451525257142e-06 1.04941656772184e-05)
(0.9998646436810728 1.116262622198178e-05 1.197010678756304e-05)
(0.9998144609096998 1.318342839693259e-05 1.414887041041392e-05)
(0.9997541564008676 1.606095004383587e-05 1.725500730863189e-05)
(0.9996795198760495 2.01144138660863e-05 2.163697055293786e-05)
(0.9995846440092298 2.584006631506427e-05 2.783760698339114e-05)
(0.9994609544868183 3.402106143258496e-05 3.671630670678017e-05)
(0.9992955943317413 4.592302968768015e-05 4.967061709143522e-05)
(0.9990685599569455 6.36822040112055e-05 6.908725504568974e-05)
(0.9999828165399213 2.531120430652708e-05 9.043730991183091e-06)
(0.9999476442502515 2.650652340571827e-05 9.47274575908019e-06)
(0.9999099869684417 2.9000595587027e-05 1.036826786606782e-05)
(0.9998679482928132 3.301574464857014e-05 1.181096381851409e-05)
(0.9998192344715798 3.892766961550975e-05 1.393737502972827e-05)
(0.9997609109856146 4.732729201861251e-05 1.696276335523098e-05)
(0.9996890506152815 5.912590396234783e-05 2.122007849770179e-05)
(0.9995981987452153 7.573273649744205e-05 2.72258974285864e-05)
(0.9994805318463414 9.935703915582592e-05 3.579242389576109e-05)
(0.9993245129125491 0.0001335232647093732 4.821785227684365e-05)
(0.9991128451386405 0.0001839228873060682 6.661096473506625e-05)
(0.999982873533322 8.431980427896075e-06 2.706212838997723e-05)
(0.9999478206068085 8.829445176913526e-06 2.834517158578416e-05)
(0.9999102996998311 9.658717749467673e-06 3.102302328721351e-05)
(0.9998684289109837 1.099361643096789e-05 3.533602570625376e-05)
(0.9998199345566685 1.295889572173354e-05 4.16906107147146e-05)
(0.9997619119331559 1.575083132526875e-05 5.072655537236245e-05)
(0.9996904804257164 1.967226377325958e-05 6.343118867157603e-05)
(0.999600261893106 2.519165540641152e-05 8.133179367472843e-05)
(0.9994835672472911 3.304215168510335e-05 0.0001068221835246591)
(0.9993291213853769 4.438386370785672e-05 0.0001437233315859696)
(0.9991201749780038 6.105769874524485e-05 0.0001982606180662937)
(0.9999832608766445 2.500630208766324e-05 2.677569003861637e-05)
(0.99994901609202 2.6173210263906e-05 2.803208890318975e-05)
(0.9999124086942967 2.860620106777703e-05 3.065267063328963e-05)
(0.9998716448680878 3.251811767359712e-05 3.48689217791932e-05)
(0.9998245702639568 3.826774578926797e-05 4.107149538364612e-05)
(0.9997684537856418 4.641753153706717e-05 4.987366156726921e-05)
(0.9996996802898633 5.783141262339905e-05 6.221885036388419e-05)
(0.9996132915315245 7.383941259342832e-05 7.95615036042953e-05)
(0.9995022735138641 9.651473497044626e-05 0.0001041720538451137)
(0.99935643211556 0.000129127051776111 0.0001396433101944613)
(0.9991607559611714 0.0001767853512488771 0.0001916651123643228)
(0.9986413742018789 5.195933490611073e-05 5.632434373391257e-05)
(0.9986999530231316 0.0002504952963036807 5.481237501214797e-05)
(0.9988203236988263 0.0004134553030261146 5.06003284221807e-05)
(0.9987852286972226 0.0002387082880478588 0.0002603483969156334)
(0.9988815317178126 0.0004004529373133956 0.000242253391738572)
(0.9987264433843682 0.0001502413838130815 0.0002699061120121822)
(0.9981005293959535 3.994507099421211e-05 0.0003065345631374258)
(0.9981800627018926 0.0003454668762303647 0.0002944834912757715)
(0.998380020720817 0.0005989702735696583 0.0002683005541850632)
(0.9981395126386743 3.927925410748532e-05 0.0003875633507008502)
(0.9982181022061226 0.0003380323177692176 0.0003713538965395515)
(0.9984188885437125 0.0005917459419912445 0.0003417261227555788)
(0.9973956457100083 0.0004235292245619811 0.0004682778855136356)
(0.9974515909460839 0.0005353268239274063 0.0004601555172788249)
(0.9972132014274548 0.0006016570445011994 0.0005183529611317563)
(0.997782892646548 0.000907568654587801 0.0004120952218751562)
(0.9968968048062357 0.001436377740469816 0.0006584851418990292)
(0.997462421960522 0.0004149169505573585 0.0005897328835340319)
(0.9975167250010341 0.0005245369181628487 0.0005796058025174436)
(0.997838063683217 0.000890128957144392 0.0005195472023697559)
(0.9969945476326598 0.001401375383201755 0.0008256512400704448)
(0.996611351550871 0.001623083738091612 0.0007463301082061125)
(0.9934334828442514 0.004209097642937018 0.001998913531320869)
(0.9967251304490961 0.001580984856974949 0.0009342311844718658)
(0.9972260139736941 0.0004662293723283965 0.0006641054727888145)
(0.9959480010570169 0.0007680834797614591 0.001107215577523285)
(0.9906145313842327 0.0003246708016630511 0.0034218070170745)
(0.9972885786906184 0.0005888351301770346 0.0006520758063935692)
(0.9960630159167329 0.0009655063433082515 0.001081811438794867)
(0.9971485824095915 0.0004764617440430451 0.0005280059023934657)
(0.9958014711416689 0.000789834993372922 0.0008860722651200619)
(0.990006786036799 0.0003405838977592266 0.002797039414329534)
(0.9959214379403913 0.0009926234107739476 0.0008655322431516448)
(0.9911279901622614 0.002798998774756898 0.002540075806110218)
(0.9927406279085561 0.004898770420583288 0.002342579078679924)
(0.9872435242625364 0.0100163670224609 0.0003582927512089783)
(0.9893258175232362 0.0003856155565110713 0.004102844048533339)
(0.9836379066192348 0.005452476781784539 0.007665549549860592)
(0.98226140915891 0.03453138028683003 0.02626740368057869)
(0.9885602281342186 0.0004064274445589363 0.003370335567203536)
(0.9827897966454866 0.005660898420400465 0.007038989923357763)
(0.9265269813170292 0.003470163413815967 0.06333149886173184)
(0.989952453323659 0.003312196072491318 0.003033011890497865)
(0.9863144047900783 0.009914249657237461 0.0003838388796449221)
(0.9791320680309554 0.03772520443291437 0.02547969568298847)
(0.9340192910769137 0.01944582240040797 0.06561048859102188)
(0.9981485625383675 0.000273009980469303 0.0002996624417244796)
(0.9980397848461605 4.091915586279986e-05 4.486337433937575e-05)
(0.9980908525858908 0.0002802731235600366 4.393777280003713e-05)
(0.9984685506746417 3.067635352930102e-05 3.224075055956086e-05)
(0.9984984336198552 0.0002063134881516257 3.203356786830779e-05)
(0.9985176795115324 0.0002100878085664101 0.0002269277470292482)
(0.9985078865224247 3.066367891980217e-05 0.0002240592007036524)
(0.9983304747555184 0.0005397926110347047 0.0002744714208549906)
(0.9981239480122039 0.000355077072683342 4.330709686725759e-05)
(0.9982666880955225 0.0005533298609498254 4.02108533606906e-05)
(0.9985409882225101 0.0002692190644364268 3.150106714275604e-05)
(0.9986010504950177 0.000307502534543778 0.0002243724877746256)
(0.9984641879974206 0.000599729158348177 5.812033392797586e-05)
(0.9974428456213983 0.00163882084587216 0.001323457177441876)
(0.9983270130696216 0.000609687590994086 3.906517329751701e-05)
(0.9986362813619376 0.0005090758985732706 6.044770143740601e-05)
(0.9986615838855228 0.0005072730671787167 0.0001811617561388333)
(0.9981860534137855 0.0002674711077572209 0.0003784441242579823)
(0.9986069064070323 0.0002063321382756885 0.0003285652166975793)
(0.9985536605135682 3.008250541048459e-05 0.0002901728309227126)
(0.9983632465851979 0.0005312926658090567 0.0003496732644985368)
(0.9987372404821172 0.0003152582623139205 0.0003509374531029632)
(0.9986281058448 0.0004054065498579426 0.0003055480182645145)
(0.9987083334495906 0.0004820952185902159 0.0002938579451992378)
(0.9972009045014373 6.406530123517543e-05 7.091126232589302e-05)
(0.9972914984999739 0.0004369458205925966 6.90335288000294e-05)
(0.9973090934600286 6.20795127502979e-05 0.0004808525313321907)
(0.9979337023978925 4.432742308842322e-05 0.0003412083145694236)
(0.9979899206083883 0.0003030069518880896 0.0003331961446312625)
(0.9978639770682729 4.552954959457802e-05 5.005622938883369e-05)
(0.9979227151317185 0.000311512081324737 4.89190473670334e-05)
(0.9976866869022376 0.0008275158838660226 0.0004260870584770467)
(0.9973500286009203 0.0005521419128633604 6.781965148414375e-05)
(0.9980267268766554 0.0003835866294270914 0.0003277933291159826)
(0.9981876796489927 0.0005994031960028695 0.0003064366147456238)
(0.9979608413534108 0.0003944316360626031 4.816200450313353e-05)
(0.9981242549353031 0.0006145881688578662 4.485396930398531e-05)
(0.9975960449623263 0.0008525258344390097 6.272466741260663e-05)
(0.9963056411382922 0.0008711267753509063 0.0007569291530803585)
(0.9967274140079349 0.001320661875190165 0.0006868497310200994)
(0.9974836573705681 0.0009259902006703454 0.0004778359922826679)
(0.9970953245371427 0.0006216581999535122 7.654314285147516e-05)
(0.996116153698535 0.0009061471448617007 0.0001125643349208467)
(0.9965634781212993 0.00137188754610435 0.0001019955706561067)
(0.9973792485028357 0.0009557381089070553 7.048165955715637e-05)
(0.9982519127200465 0.0006618122846775731 0.0002985192964302603)
(0.9981926907708643 0.0006771077050458451 4.35794402348997e-05)
(0.9976967993173907 0.0009346191975083331 6.063866717635678e-05)
(0.9975939309892219 0.001013641518224705 0.0004612161722587185)
(0.9967429064417909 0.001491227667054043 9.772351454395573e-05)
(0.9974949755044215 0.001045769094418052 6.80004933781958e-05)
(0.9973784225849255 6.080403977555774e-05 0.0006054144770053859)
(0.9979785532979409 4.35278172287021e-05 0.0004309198915203465)
(0.9980335101986874 0.0002972577535592766 0.000420704148893824)
(0.9977447668312942 0.0008114289374755346 0.0005370703162184532)
(0.9980700246686589 0.0003763371018171466 0.0004138537456526501)
(0.9982269985981235 0.0005900467943956733 0.0003882130308432776)
(0.9982900393689991 0.000652037534937229 0.0003782662210264446)
(0.9976572641254071 0.0009929782428350212 0.0005807563113106158)
(0.9964316093546943 0.001689247995901434 0.0001110467808337863)
(0.995249490046906 0.002508664775724089 0.0001668184464589192)
(0.9955435756992389 0.00238864092654622 0.001110585264945223)
(0.9928249872801074 0.00449946510089362 0.0003058174225611525)
(0.9947514882948413 0.002884352151773632 0.0001927011574560779)
(0.9951013811940917 0.002736205813896708 0.001277920283462766)
(0.9957274513744502 0.002313084745377331 0.001381711738612267)
(0.9938047453762284 0.004030322397907243 0.002457463097301134)
(0.9953190330970834 0.002643357387086519 0.001585934396801557)
(0.9963275701578218 0.0006743723019029237 0.0009687205283601234)
(0.9971290074714274 6.841555348485161e-05 0.0006827371134856758)
(0.9961744318281416 9.94591793386609e-05 0.001001237356518278)
(0.9957681245109916 0.0001135067324497121 0.001146822683780199)
(0.9944678898355663 0.001162357924034103 0.001697924960033563)
(0.9941679287945719 0.0001729989814032756 0.001772215134646017)
(0.9912554647811984 0.002152566866022633 0.003230092962633735)
(0.9938267288022465 0.001346129443291451 0.001977302810993086)
(0.9934673539786936 0.0002009124659309525 0.00207017977451825)
(0.9964257194823932 0.0008488267781228977 0.000947820126079329)
(0.9968314602920412 0.001287993489282078 0.0008608734664304421)
(0.9975504525717172 0.0009068784305481145 0.0006015247726482829)
(0.9965361090808336 0.001456643306692135 0.0009766118510203406)
(0.9954268015057339 0.002149800140212534 0.00145786746593548)
(0.9946581020998552 0.001454303177249169 0.001650618281591788)
(0.9916525001957621 0.002670113214529522 0.003110186443573595)
(0.9932159972546954 0.003805226462778389 0.002637907711855306)
(0.9949654587406289 0.002465200333237886 0.001679556576601612)
(0.9940538610134543 0.001681122831663405 0.001918322068147167)
(0.9962035453742412 0.0006922298791348579 0.0007737872778584204)
(0.9969222212914044 7.230144286161017e-05 8.022801333359304e-05)
(0.9970274713077109 0.000492426738883692 7.798856225647947e-05)
(0.9970483785323474 6.99331639393836e-05 0.0005429603322388042)
(0.9960077652449606 0.0007202824593452783 0.0001151093886298487)
(0.9960442014162451 0.0001021243607414122 0.0008000233314047984)
(0.9958385276148296 0.000106312764078638 0.0001190717447229192)
(0.9955693202498054 0.0008241076251130948 0.0001321940612696428)
(0.9956137870208057 0.0001167614541707769 0.0009181047805577812)
(0.9942181178433858 0.001203174467147183 0.001368257978042857)
(0.9939019537419091 0.0001791548783307606 0.001428828979414268)
(0.9953691441016583 0.0001218910082874165 0.0001370485594117069)
(0.9934748714268666 0.0001889259739736274 0.0002155920560829856)
(0.9938169748830962 0.001268149830802592 0.0002063283718595184)
(0.9906977313812563 0.00225831119795248 0.002640386947315582)
(0.9890214945020346 0.000364783623009006 0.0004303411129465157)
(0.9897734678442065 0.002427335325550709 0.000406927737049274)
(0.9935247059308373 0.001397179818962075 0.001597978000191924)
(0.9931443184473671 0.0002086278298961344 0.001673900826247332)
(0.9926232497964576 0.000220859522825403 0.0002536462317801799)
(0.9930368353425248 0.001478713413784088 0.0002420382109358729)
(0.9964145250616819 0.00149606696929528 0.0007805386248438999)
(0.9956972159632848 0.001035338461974017 0.000129081995749895)
(0.9962223047370936 0.001558070833207133 0.0001162173727546157)
(0.9949085557437144 0.002335219986256787 0.0001763113842668995)
(0.9952275692910709 0.002221386277881475 0.001172573394916964)
(0.9944185353329221 0.001504888095688144 0.001329669990946595)
(0.9940339403082173 0.001585453393913014 0.0002004101215629558)
(0.9928033765347257 0.003978116600614958 0.00214818115325052)
(0.9902555899748526 0.003009325076638178 0.0003914612051431905)
(0.9921245034074929 0.004259471857903219 0.000329416566283007)
(0.9943465889924086 0.002694738118094943 0.0002044759977450535)
(0.9947283227779343 0.002553570218978067 0.001354385571110365)
(0.9937650487169405 0.001744241002686512 0.001549689674797825)
(0.9932986847430982 0.001845208911400103 0.0002346037088867841)
(0.9920013683553616 0.005268090991337211 0.0003602859333081876)
(0.9879732181872279 0.009148145549955395 0.0003322432344792598)
(0.9901523065499046 0.007974446245493596 0.003906602077182446)
(0.9892937449533794 0.008980324291177445 0.004875850753912126)
(0.9803995923109353 0.01999127850284117 0.0007760800700632475)
(0.9850058717606244 0.01666476280977445 0.009594733976010236)
(0.9829020189709625 0.03630511325883454 0.02258525497548177)
(0.9791511748819499 0.02224825141253902 0.0008721435468661231)
(0.9843937712504013 0.01831995744973705 0.01063986310836879)
(0.9697165976613008 0.05053995418404535 0.002129799655733545)
(0.9688785791608453 0.05746815993950156 0.002439328493070715)
(0.9729053981163405 0.05289219946172423 0.01571158134972395)
(0.9863185646920711 0.04486546498732538 0.001515380116786331)
(0.988126231529615 0.04186375781598733 0.009891785600751178)
(0.9607991291084178 0.06115238653629459 0.002839844766247305)
(0.9659569387479384 0.05604463385194044 0.01820309444816166)
(0.9307622226866616 0.06487596892612518 0.00211739161148068)
(0.9412266970065234 0.0585932211937303 0.028254923281052)
(0.9796023906190848 0.04187970047148148 0.02862840205321564)
(0.9690175164626941 0.05296214850420327 0.02204544819870561)
(0.9449469508658005 0.05671932463924544 0.03116180347595444)
(0.9647842144985895 0.0442278873086993 0.04049357119849194)
(0.9837465580784187 0.04004039414299397 0.02515089330195505)
(0.9932231722387325 0.03306471035669657 0.01665077353517042)
(0.9753055786764719 0.05012494572427265 0.01910143217239168)
(0.989219278273671 0.04002343061203734 0.01214983795009601)
(0.9931885604210182 0.004673480032807199 0.002868433017615576)
(0.9910025066963217 0.007477008816197069 0.004695952518128946)
(0.9900677062144191 0.008711915438251372 0.005429026537814677)
(0.9860826873482467 0.01586274238467265 0.01031927992199552)
(0.9854812076167664 0.03333815024370029 0.02338498019459927)
(0.9856011528947537 0.01738411869591431 0.0114047750133688)
(0.9830748953724227 0.03804520873483205 0.02928511309022144)
(0.991908394755344 0.02752314816354327 0.02800264985049955)
(0.9853446610623285 0.02810243998723928 0.03747662395956362)
(0.97075505562234 0.03983550363258866 0.04086864451752815)
(0.9901186756983523 0.002542639912784022 0.003851038287076861)
(0.9847334563063446 0.004942778216499208 0.006897530241513915)
(0.9828482060328991 0.000359989749966313 0.007596882733504872)
(0.9815212686847744 0.0003974183196300885 0.008469307803217009)
(0.972822897534505 0.01120617683634768 0.01715679134593128)
(0.9679665314338798 0.0008323581577814835 0.01960381505243373)
(0.9375319080584885 0.003166906745757555 0.06388316089882262)
(0.9414248384740591 0.01754219085072242 0.06056146715899767)
(0.9707311441237464 0.01249499756150413 0.01946316470633763)
(0.9652551336753258 0.0009297435651249263 0.02236351876246709)
(0.9905925133189073 0.003144906656720949 0.003696010335697087)
(0.9924851332109771 0.004434179145384458 0.0030958703009668)
(0.9897351509598306 0.007259137455709239 0.005217335833888555)
(0.9852687411189176 0.005471732110817373 0.006717953673617267)
(0.9890369208763451 0.008481049888951113 0.00568651117083182)
(0.9846044816234217 0.01590977348316311 0.01110219614925636)
(0.9842040825538265 0.006026337100319426 0.007454989796208008)
(0.9740971692372681 0.01230286188021056 0.01651206434916456)
(0.9558971665642246 0.0302264095619856 0.04861498075183288)
(0.9839634495021766 0.01748855451110341 0.01231793918764347)
(0.9721695544702534 0.01370652763891315 0.01869867194054814)
(0.9522328859689172 0.03291161546898946 0.05550458649597683)
(0.9763277970333614 0.02355715631758507 0.04996228590288014)
(0.9830159698459442 0.02755625628928229 0.04073653865390443)
(0.9663914692314733 0.03926687184777233 0.04492831571734177)
(0.9894186826422416 0.002682362319105382 0.003165802607988253)
(0.9873137691954601 0.0004415249009062086 0.0005270711982871071)
(0.9882498335246792 0.002904015908091132 0.0004920358654421281)
(0.9839822241284893 0.005127321260247487 0.006320658399093146)
(0.9820025417933477 0.0003734288387032922 0.006969738627683906)
(0.9785864727985567 0.0004243402417112631 0.000533399833643057)
(0.9810211410589965 0.005840741248936173 0.0004837301927119078)
(0.9805531526015977 0.0004130240554574471 0.007787537281008367)
(0.9705606992427281 0.01184716994387214 0.01610347311537241)
(0.9652644327533806 0.0008806302460640758 0.01843744338940873)
(0.9766195513321817 0.000473594080611826 0.000602024669523283)
(0.9533389530613406 0.001081472189904354 0.001556202232299157)
(0.9793834516469516 0.006487172284345572 0.0005428779890143456)
(0.960604167752532 0.01454782795562047 0.00135079765594768)
(0.9363002282521392 0.01840168177488092 0.06049642879647658)
(0.867223923350165 0.001614304886819491 0.003461956148786546)
(0.9680932378590489 0.01325710977146522 0.018350365052088)
(0.9620866364297403 0.0009871018050799933 0.02112989937470146)
(0.9478589105696612 0.001225966715005521 0.001814139489828443)
(0.9562676755739749 0.01650873386785141 0.001566734015291326)
(0.8750301227638683 0.02714061322151317 0.003276684497070256)
(0.9919840840986186 0.004653704419110336 0.002531765101486735)
(0.9888530420848047 0.003589475317024528 0.0004715993097057473)
(0.9911489831027255 0.005014058607245681 0.0003908644904908355)
(0.9871268799235726 0.009050231310145939 0.000351338914484212)
(0.9882447720752816 0.00754520476495558 0.0042466993359889)
(0.9845182297691578 0.00566703036092788 0.006144789787513165)
(0.9816593672080179 0.006451461701404947 0.0004701659020891193)
(0.9884684849552738 0.008756694551110248 0.005126392149737093)
(0.9782266681300883 0.02015780232378984 0.0008407705848266863)
(0.9834007563879317 0.01673263962636269 0.01033725323496242)
(0.98338530767223 0.006253151144559425 0.006840644783375499)
(0.9719510827765676 0.01300264095380939 0.01548844052579184)
(0.9801095763463247 0.007158824722066668 0.0005269663585777155)
(0.9625193025000996 0.01595073235639325 0.001296136693876121)
(0.9477596147474964 0.03273632677043405 0.05031515565154798)
(0.9766729384375831 0.02251643612652278 0.0009494245048513395)
(0.9826048189818507 0.01845271237424589 0.0115101275795711)
(0.9628369934001605 0.05325714232435768 0.002446244348490234)
(0.9696722777510361 0.01453839886464561 0.01761738367447942)
(0.9584939131590071 0.01808855430980954 0.001500453960325005)
(0.9282993876619362 0.05871961710506807 0.002004307936697989)
(0.9245369906098231 0.06408393899971539 0.002239675022483901)
(0.9363815580665987 0.05762976406044673 0.02975960262947741)
(0.8902432473466314 0.05338045213451627 0.003054346795921038)
(0.9081411307995833 0.04787919406636607 0.03993843903270648)
(0.865275017465839 0.02909168143802019 0.003654661453600941)
(0.8870441065695291 0.02632996351780556 0.04769483637476112)
(0.8861459663133554 0.05079526687666739 0.003151291241158229)
(0.904713297417804 0.04560780551622504 0.04118105449808075)
(0.9445791105815993 0.03305186501741909 0.05695080698768897)
(0.8924562606428067 0.02560791922267047 0.05202194547403467)
(0.9093211050751181 0.04426750688638254 0.04493479171993797)
(0.9466618397663822 0.03468471362980469 0.0552090913639038)
(0.9394830483070811 0.05603398950869604 0.03280986248665826)
(0.9594960914651866 0.04368735681086962 0.04472190711793523)
(0.9125829147758783 0.04646002593532149 0.04358607122253686)
(0.8633908916216171 0.02572051703363769 0.003701154745655472)
(0.885428758775326 0.0233009605965447 0.04830304037896917)
(0.9330172786600994 0.01724611833866369 0.0664403807040513)
(0.8909092262786702 0.02266736297022501 0.05268545039292711)
(0.9337450151229957 0.003511523086938695 0.07478820751523096)
(0.9396119642682405 0.01850962161307735 0.06549959852915417)
(0.9986598945672681 0.000153332076944574 5.589287402677076e-05)
(0.9986831824386946 0.0001517259563218822 0.0001649418136281352)
(0.9986646737835372 5.150281811235053e-05 0.0001664265363946653)
(0.9988556267017532 4.375781630280492e-05 0.0001357755938587827)
(0.9988637205923547 0.0001251069919600682 0.0001346871759488919)
(0.9988390726676458 4.399412959092863e-05 4.649106270446162e-05)
(0.9988484452534843 0.0001262543691420229 4.626748174200703e-05)
(0.9987195596013511 0.0002489370128604595 0.0001635170218248825)
(0.9987564951032039 0.0003356617931907923 5.442593823290131e-05)
(0.9987914326044405 0.0003311874579899381 0.0001538457679210169)
(0.9989050369151594 0.0002053343313120343 0.0001322211164105183)
(0.9988902961453298 0.000207992807314997 4.54109455641174e-05)
(0.9989188221083442 0.0002798967499218984 4.376484743684376e-05)
(0.9989368952994991 0.0002763292290924479 0.0001272155079381987)
(0.9988395049165957 0.0004067520641018662 0.0001487600551813501)
(0.9989951607525065 0.0003511819147891054 4.205255525931356e-05)
(0.9990102511985655 0.000348461063793012 0.0001224745066087192)
(0.9988110754238541 0.000319985894558662 0.0002486943413909348)
(0.9989509880031774 0.0002000558705991004 0.0002176138978649023)
(0.9989740941958329 0.0002695432083821773 0.0002104808939432815)
(0.9990496363166912 0.0003411592264431079 0.0002028714797411879)
(0.9987116679574689 5.03872788640649e-05 0.000271164095941776)
(0.9989015151500328 4.283725986371471e-05 0.0002252013892998029)
(0.9989091116845663 0.0001224785506102287 0.0002225859711410787)
(0.9982324533406896 0.000109168049362314 0.0001990339454990128)
(0.9981086637344971 0.0001193486450255675 0.0003054465013126374)
(0.9980706048587202 4.043135538712442e-05 0.0002216831573767417)
(0.9982511911567223 3.619620358108494e-05 0.0002763399562016916)
(0.9982581220153216 0.0001081270861810975 0.0002755693945743592)
(0.998079001840473 0.0001208327855772204 0.0002209170762048645)
(0.9982251601653078 3.653352168949732e-05 0.0001995845664485056)
(0.9983271104511882 0.0003793865638212255 0.0001904125499074826)
(0.9982182711090033 0.0004136233804106249 0.0002880344051280264)
(0.9981524450586887 0.0003503844445652065 0.0002136170583768505)
(0.9983174544822995 0.0003138780587948142 0.0002659850489394751)
(0.9982962054976736 0.0003176651860456357 0.0001936708158932908)
(0.9983427222509366 0.0003732546817497404 0.000258740761282941)
(0.9981915758684192 0.0004196877012152262 0.0002093665318759051)
(0.9985694682355285 0.000588512555401517 0.0001724799515861006)
(0.9984453612580011 0.0006506502966560265 0.000264375115681019)
(0.9983534180753895 0.0006024709548305813 0.0001936897291754192)
(0.9984814648107805 0.0005469257821812901 0.0002368867520970706)
(0.9984603346409057 0.0005376143356677987 0.0001743088046481359)
(0.9985594393750162 0.0005871685831118353 0.000245816394133203)
(0.9984268722911408 0.000656080972029967 0.0001895704399836287)
(0.9983304582067074 0.0001046858277088577 0.000417593001014334)
(0.9981473249279919 0.0001172896943590609 0.0003861342679825467)
(0.9981863494332558 3.84319396134532e-05 0.0004635253762120865)
(0.9982856966445093 3.571879493926333e-05 0.0003501306840030478)
(0.998292208620805 0.0001065859015994801 0.0003491572172972494)
(0.9981937239019376 0.0001146601063494406 0.0004616716417261093)
(0.9983251736495249 3.516721523690534e-05 0.0004191352411982713)
(0.9984825275634556 0.0003503058508420486 0.0003852715934474551)
(0.9982647224155043 0.0003273876752683394 0.0004454440274068241)
(0.9982579953275756 0.0004067706340525663 0.0003614247385072284)
(0.9983507312362361 0.0003043951880271247 0.0003341568428471914)
(0.9983827967159968 0.0003703788400706247 0.0003133312732144932)
(0.9983863329193525 0.0002821727424311546 0.0004048687534842707)
(0.9983161732914549 0.0003962477318214859 0.0004354047858351688)
(0.9985781997595257 0.0005813977463685919 0.0003678275940142985)
(0.9984560598726649 0.0005841179115088246 0.000411302550542708)
(0.9984742994186108 0.0006430266214883597 0.000335691558148108)
(0.9985494722265373 0.0005409847015464998 0.0003066845367064153)
(0.9985796851698775 0.0005842747707220659 0.0003127763784698016)
(0.9985703761881336 0.0005425358936600375 0.0003734355034968377)
(0.9985037860433885 0.0006338968080613251 0.0004008386287758252)
(0.9975336552601753 0.000277177141417159 0.0003059498011644597)
(0.9973441824809403 0.0004301624701500817 0.0003397647183614968)
(0.9973527679569354 0.0003064433805298426 0.0004745073339910081)
(0.997616071203942 0.0003776387549046651 0.0004166977026511349)
(0.9975716128689447 0.000383275470792346 0.000302088376867451)
(0.9975788889466846 0.0002730793878229995 0.0004219944026754107)
(0.9973003252520971 0.0003112714689859127 0.0003443155367885936)
(0.9976816652773518 0.0005806173296951287 0.0002909278744564597)
(0.9975195870690465 0.0006406015338954566 0.0004502960494966529)
(0.9974013998013347 0.0005436385022163732 0.0003338297347924725)
(0.9976646872454991 0.0004777156854702024 0.0004097882041734916)
(0.9976212236353308 0.0004847770448277734 0.0002970462802685571)
(0.9974709452111282 0.0006504357155037087 0.0003266238529209994)
(0.9977239146107363 0.0005722818755802201 0.0004014184072543105)
(0.9969711691497023 0.0008236867977877816 0.0004156528722754719)
(0.9969458157228032 0.0006783392447853347 0.0005859030305796611)
(0.9972915948304436 0.0007191050555466973 0.000506632219499945)
(0.9971550007460814 0.0006115397750304042 0.0003764097745511333)
(0.9972353230845923 0.0007308014844876982 0.0003678401425974982)
(0.9970365727255668 0.000809694234778581 0.0005718830129951715)
(0.9968780229572165 0.0006901727521085091 0.0004259137636995667)
(0.9980091176941628 0.0008917368981294563 0.0002581963981379781)
(0.9979542028284439 0.0008147815491156187 0.0003692430448431523)
(0.9978855468713416 0.0009779308682576469 0.0003970713959973742)
(0.9977403632914484 0.0009209514557615333 0.000298733950470903)
(0.9979170248154238 0.0008260268678751492 0.0002673997193485525)
(0.9978454060990247 0.0009921819958619966 0.0002877920029498112)
(0.9980441750461813 0.0008797041807803933 0.0003565877093038139)
(0.9972473521272588 0.001388710829373086 0.0004054715789916766)
(0.9971536064785925 0.001275073882320705 0.0005829367940515884)
(0.9968209796432298 0.001463441283695479 0.0004793597775125556)
(0.9970754238637096 0.00153372680270165 0.0006284221764138348)
(0.9970883576011341 0.001297639813765677 0.0004238669129689157)
(0.9973084323645128 0.00136494101826708 0.0005578020304461755)
(0.9970047210475123 0.001562132634344457 0.0004573222865610725)
(0.9977088462354453 0.0002613062681841665 0.0006345285967994751)
(0.9974208048080468 0.0003001736211073368 0.0005975003929957602)
(0.9975430261537818 0.0004045203189359635 0.0007025614431535248)
(0.997673889805659 0.0003703091793485178 0.0005253645722803167)
(0.9976376891840868 0.0002677462622603993 0.0005319736188914887)
(0.9977438631857479 0.0003614700547395687 0.0006267721947351942)
(0.9975029292372737 0.0002926041738069268 0.0007116939230533901)
(0.9978454137586589 0.0005484410090593342 0.0006044457309689361)
(0.9975827107992256 0.0006278351923440784 0.0005673085400958762)
(0.9975953407245338 0.0005115060928070129 0.0006906530172945205)
(0.9977212411664529 0.0004685462914891556 0.000516752739077156)
(0.9977788958111256 0.0005614816866482808 0.0005063230733685638)
(0.9977896685625288 0.0004574884522123129 0.0006166833049753472)
(0.9976588934064969 0.0006124019548983501 0.0006761770048033011)
(0.998144759320013 0.0008446782236428723 0.0005377270894686479)
(0.9979046806621095 0.0008689379801138285 0.0006197213153482073)
(0.9980024272960465 0.0008000919310400768 0.0004661075932175202)
(0.9979376531430874 0.0009593410819726928 0.0005007041985272871)
(0.9980896904541667 0.0008639499078962432 0.0004501601972126526)
(0.9980606524408626 0.0007821614620901937 0.0005567851978230159)
(0.9980006451583937 0.0009367339181128977 0.0005973778160886182)
(0.9974821966644175 0.001296965765623599 0.0008322699005602739)
(0.9972378896082792 0.001245833162220046 0.0007320421183977268)