/*--------------------------------*- C++ -*----------------------------------*\
  =========                 |
  \\      /  F ield         | OpenFOAM: The Open Source CFD Toolbox
   \\    /   O peration     | Website:  https://openfoam.org
    \\  /    A nd           | Version:  7
     \\/     M anipulation  |
\*---------------------------------------------------------------------------*/
FoamFile
{
    version     2.0;
    format      ascii;
    class       volVectorField;
    location    "0";
    object      grad(Phi);
}
// * * * * * * * * * * * * * * * * * * * * * * * * * * * * * * * * * * * * * //

dimensions      [0 1 -1 0 0 0 0];

internalField   nonuniform List<vector> 
12681
(
(-1.00009656660652 -5.24688373637601e-06 1.38585681180671e-06)
(-1.000085350180071 -4.836535802521528e-06 1.313009358311922e-06)
(-1.000075204633198 -4.37141084841395e-06 1.218533895762862e-06)
(-1.000066207392484 -3.871628650120563e-06 1.106519453045472e-06)
(-1.000058393302004 -3.352958439339852e-06 9.806453852176258e-07)
(-1.000051766222708 -2.826919033971336e-06 8.441018750484311e-07)
(-1.000046309751358 -2.301168952722998e-06 6.99569012833541e-07)
(-1.000041996528497 -1.780059763811767e-06 5.49240707719187e-07)
(-1.000038795896651 -1.265260030747238e-06 3.948809674190145e-07)
(-1.000036679864372 -7.563907457041476e-07 2.379022105751415e-07)
(-1.00003553997814 -2.516415295028866e-07 7.945769045018461e-08)
(-1.000095453918331 -2.383393120464192e-05 1.458079728495934e-06)
(-1.000084036970739 -2.194011823886117e-05 1.377597648951111e-06)
(-1.000073757272469 -1.98054004563188e-05 1.275198446699376e-06)
(-1.000064679713871 -1.752129084886536e-05 1.155287877868833e-06)
(-1.00005682623758 -1.515890965220202e-05 1.021758516997758e-06)
(-1.000050188538478 -1.276968438823617e-05 8.77923495097057e-07)
(-1.000044739462452 -1.038731920710586e-05 7.265117919064132e-07)
(-1.000040442665113 -8.030447581242049e-06 5.697085641863309e-07)
(-1.000037260393123 -5.70555031037538e-06 4.092263293595031e-07)
(-1.00003515943662 -3.409879489435506e-06 2.463959826055954e-07)
(-1.000034028662802 -1.134260208840535e-06 8.226968782848926e-08)
(-1.000093130494214 -4.046906316190773e-05 1.60681792524353e-06)
(-1.000081321649323 -3.715186843500361e-05 1.510161636569684e-06)
(-1.000070785805808 -3.345304787982779e-05 1.391133273924509e-06)
(-1.000061560901681 -2.952813439827131e-05 1.25478144711421e-06)
(-1.000053641695544 -2.54959338075179e-05 1.105420161108347e-06)
(-1.000046994632263 -2.144056782582562e-05 9.465947230042557e-07)
(-1.000041570514551 -1.741549067191268e-05 7.811138886356165e-07)
(-1.0000373147596 -1.344845789696967e-05 6.111259713454252e-07)
(-1.000034175328559 -9.546753122369172e-06 4.382215619806134e-07)
(-1.00003210857427 -5.702267381113596e-06 2.635507146007332e-07)
(-1.000030998204729 -1.89625394361737e-06 8.7946860510645e-08)
(-1.000089392155135 -5.823127522175399e-05 1.840916900360169e-06)
(-1.000077020955457 -5.323769897258574e-05 1.717625728574979e-06)
(-1.000066133538432 -4.775609226737017e-05 1.571622623551335e-06)
(-1.000056722599799 -4.200961948375149e-05 1.408937297130421e-06)
(-1.000048738671008 -3.616422646213212e-05 1.234496314092667e-06)
(-1.000042108095342 -3.033349452652451e-05 1.052152721637381e-06)
(-1.000036747352524 -2.458587558773472e-05 8.647849803918333e-07)
(-1.000032573927564 -1.895281187858089e-05 6.744341728770917e-07)
(-1.000029514202607 -1.343679688514673e-05 4.824581683431894e-07)
(-1.000027508937441 -8.018884276428426e-06 2.896897085432049e-07)
(-1.000026434643327 -2.66548449308342e-06 9.659178383190882e-08)
(-1.000083912141746 -7.758415527425741e-05 2.174298174027999e-06)
(-1.000070846466368 -7.053653764677046e-05 2.010741431135496e-06)
(-1.000059557726318 -6.295201708650391e-05 1.82476219709937e-06)
(-1.000049969035875 -5.512433218890485e-05 1.623707937391106e-06)
(-1.000041965570587 -4.726370025953654e-05 1.413263575806764e-06)
(-1.000035416281388 -3.950683052000864e-05 1.197598176734843e-06)
(-1.000030189831903 -3.1929132273123e-05 9.795753585142192e-07)
(-1.000026165680897 -2.455715562366112e-05 7.609858457709764e-07)
(-1.000023241400957 -1.73801638048143e-05 5.427772676218311e-07)
(-1.000021337261878 -1.0360373458973e-05 3.252689893521459e-07)
(-1.000020321312884 -3.441831472536565e-06 1.083485037857842e-07)
(-1.000076215897463 -9.899410144820183e-05 2.626739917500744e-06)
(-1.000062388817269 -8.936705435935751e-05 2.40449423339175e-06)
(-1.000050721332975 -7.924558990413138e-05 2.161623223835186e-06)
(-1.000041034282972 -6.899344091570996e-05 1.907080634591126e-06)
(-1.000033121169339 -5.885734134603023e-05 1.647352356778971e-06)
(-1.000026773527356 -4.898566679056847e-05 1.386807017115803e-06)
(-1.000021797677627 -3.944799632349395e-05 1.128083526913003e-06)
(-1.000018024959096 -3.025331662587218e-05 8.724641611773053e-07)
(-1.000015317420443 -2.136582944683995e-05 6.202082807021e-07)
(-1.000013570605109 -1.271814158787521e-05 3.708394931823486e-07)
(-1.000012644064743 -4.222110336599135e-06 1.233897928697894e-07)
(-1.00006564693922 -0.0001229144856869094 3.224889721088695e-06)
(-1.000051097954824 -0.0001100067843751163 2.918576687790706e-06)
(-1.000039184112875 -9.678738346519125e-05 2.59639431909884e-06)
(-1.000029580787317 -8.368111259060561e-05 2.269035488235908e-06)
(-1.000021957796462 -7.09546573116617e-05 1.943618242901858e-06)
(-1.000016006936365 -5.874858928067709e-05 1.624374793509302e-06)
(-1.000011457481738 -4.710720601264204e-05 1.313307613035502e-06)
(-1.00000808351402 -3.600402545100848e-05 1.010758910010074e-06)
(-1.000005706225919 -2.536239325207079e-05 7.158778826437749e-07)
(-1.000004193542768 -1.507157598498735e-05 4.269919045620721e-07)
(-1.00000339833116 -4.999168607577862e-06 1.418987219718022e-07)
(-1.000051324699768 -0.000149752905003853 4.00343214119981e-06)
(-1.000036261715047 -0.0001326575268381092 3.577829258056626e-06)
(-1.00002439566119 -0.0001156422913994868 3.146411003801832e-06)
(-1.000015201556818 -9.916828612288612e-05 2.721371224184113e-06)
(-1.000008188646029 -8.349112469385747e-05 2.309890932627697e-06)
(-1.000002926076056 -6.871231788752056e-05 1.91536021660735e-06)
(-0.9999990531137976 -5.48224931954388e-05 1.538419826656413e-06)
(-0.9999962801463352 -4.173537856744244e-05 1.177787629692984e-06)
(-0.9999943849709767 -2.931325683169781e-05 8.308826905733876e-07)
(-0.9999932073804644 -1.738537794168663e-05 4.942810428004178e-07)
(-0.999992598010204 -5.761034725271243e-06 1.640436418925966e-07)
(-1.000032097667095 -0.0001798126805871992 5.00622993640811e-06)
(-1.00001698734122 -0.0001573916978394598 4.412471078602929e-06)
(-1.00000569487216 -0.0001357453656207765 3.831929917528156e-06)
(-0.9999974296206113 -0.0001153188557572184 3.277296374940566e-06)
(-0.999991501828226 -9.630366644142168e-05 2.75453346146209e-06)
(-0.999987338304867 -7.871470247877713e-05 2.264886783407939e-06)
(-0.999984480542418 -6.244926302345628e-05 1.806440644303369e-06)
(-0.9999825742776567 -4.732962174547342e-05 1.375249488143637e-06)
(-0.9999813562252928 -3.313229702761605e-05 9.661198591940894e-07)
(-0.9999806413206614 -1.960728874045307e-05 5.73127378084922e-07)
(-0.999980286009748 -6.490212709806024e-06 1.899459312060145e-07)
(-1.000006500030411 -0.0002131970949734718 6.287073481350723e-06)
(-0.999992194400081 -0.0001840739674705549 5.457822637787449e-06)
(-0.9999823228191075 -0.0001568430661980095 4.675435068741648e-06)
(-0.9999757598576386 -0.0001318384370088134 3.950648156078332e-06)
(-0.9999715844927505 -0.000109103266762389 3.28572979742219e-06)
(-0.9999690716726384 -8.84974349751879e-05 2.677557803338842e-06)
(-0.9999676680330642 -6.977222020743167e-05 2.11979075034992e-06)
(-0.9999669631803392 -5.261925977440032e-05 1.604302618200519e-06)
(-0.9999666626379718 -3.670074402684093e-05 1.122072509803581e-06)
(-0.9999665652961466 -2.166662560398892e-05 6.636950983662051e-07)
(-0.9999665460589574 -7.163259720888191e-06 2.196405253842607e-07)
(-1.000096752598917 -5.172081429805075e-06 6.16194114482752e-06)
(-1.000085610128172 -4.769640787216636e-06 5.839416670297693e-06)
(-1.000075525430014 -4.312722563515387e-06 5.420447432695428e-06)
(-1.000066576969277 -3.821118495839269e-06 4.923167549125421e-06)
(-1.000058800986456 -3.310376981424693e-06 4.363918908349502e-06)
(-1.000052202894929 -2.791889498921008e-06 3.756893188131086e-06)
(-1.000046767839243 -2.273263931540386e-06 3.114033626133965e-06)
(-1.000042469883138 -1.758860912470795e-06 2.445136342640636e-06)
(-1.000039279583244 -1.250402334451734e-06 1.758096212382103e-06)
(-1.000037169896963 -7.475936246726035e-07 1.059251579369113e-06)
(-1.000036033263249 -2.487291036467867e-07 3.537925781591041e-07)
(-1.000095662521256 -2.34906523319812e-05 6.481188637361204e-06)
(-1.000084321089873 -2.163382809228214e-05 6.1250786203004e-06)
(-1.000074102646578 -1.953725499381767e-05 5.671200680746074e-06)
(-1.000065073450904 -1.72909552509372e-05 5.13908937648592e-06)
(-1.00005725714296 -1.496506312537175e-05 4.54603294732489e-06)
(-1.000050647225354 -1.261045442801912e-05 3.906772255311215e-06)
(-1.000045218296363 -1.026063341791336e-05 3.233473132557081e-06)
(-1.000040935590743 -7.934304403822728e-06 2.535899437289799e-06)
(-1.000037762682312 -5.638217600967178e-06 1.821724385595094e-06)
(-1.000035667387116 -3.370032706395741e-06 1.0969312571835e-06)
(-1.000034539482314 -1.121071676782324e-06 3.66268030313276e-07)
(-1.000093387274398 -3.987429826990432e-05 7.138430177357689e-06)
(-1.000081656730835 -3.662361052558799e-05 6.71120683495352e-06)
(-1.000071182557173 -3.299253174793286e-05 6.184102390172085e-06)
(-1.000062004777409 -2.913407190763274e-05 5.579494885972085e-06)
(-1.000054120485633 -2.516543044417401e-05 4.916544756328674e-06)
(-1.000047498465221 -2.116989027745049e-05 4.211032468243558e-06)
(-1.000042091689218 -1.720067339694429e-05 3.475491206414552e-06)
(-1.000037847467321 -1.328575918346796e-05 2.719536334472717e-06)
(-1.000034715311547 -9.432982229662389e-06 1.950315223182417e-06)
(-1.000032652751039 -5.635007485460529e-06 1.173023351027996e-06)
(-1.000031544431425 -1.874003544469202e-06 3.914519987296433e-07)
(-1.000089728997048 -5.734965412096378e-05 8.172268005944723e-06)
(-1.000077439323351 -5.246001250602812e-05 7.628042341318854e-06)
(-1.00006661310796 -4.708241876172352e-05 6.98224623994243e-06)
(-1.0000572463496 -4.143646582921421e-05 6.261600887630691e-06)
(-1.00004929296133 -3.568596972858273e-05 5.487993543285461e-06)
(-1.000042682468307 -2.994354273233594e-05 4.678590426662805e-06)
(-1.000037334165269 -2.427755151845903e-05 3.846259854795561e-06)
(-1.000033167899576 -1.871999385938407e-05 3.000168937743285e-06)
(-1.000030111930615 -1.327436212816843e-05 2.146459354372369e-06)
(-1.000028108408431 -7.923000528153886e-06 1.288943916473368e-06)
(-1.000027034803571 -2.633789082995271e-06 4.297937738809167e-07)
(-1.000084371469745 -7.636332308691403e-05 9.643378080805972e-06)
(-1.000071389495475 -6.946943836250157e-05 8.922484781819299e-06)
(-1.000060159010496 -6.203540901106293e-05 8.100974015279703e-06)
(-1.000050608328376 -5.435043093249273e-05 7.211410469879623e-06)
(-1.000042627562536 -4.662229890750602e-05 6.279071774345052e-06)
(-1.000036090047011 -3.898692116810472e-05 5.322567465300031e-06)
(-1.000030868140345 -3.152007917406333e-05 4.35474733344744e-06)
(-1.000026844277931 -2.424950189183757e-05 3.383715163695063e-06)
(-1.000023918318216 -1.716615916597103e-05 2.413836968031208e-06)
(-1.000022012177993 -1.023430147212288e-05 1.446688270604107e-06)
(-1.000020994852907 -3.40019885135271e-06 4.819236175067139e-07)
(-1.000076856307707 -9.736193243758979e-05 1.163780658591205e-05)
(-1.000063111409275 -8.795666744276825e-05 1.065979419961701e-05)
(-1.00005149410053 -7.804680428602503e-05 9.588542011419479e-06)
(-1.000041833239497 -6.799087847064751e-05 8.463763938715623e-06)
(-1.000033929451566 -5.803339748822181e-05 7.314354012856927e-06)
(-1.000027580248573 -4.832263883236531e-05 6.15988806408762e-06)
(-1.000022596745993 -3.8929519428077e-05 5.012303375018234e-06)
(-1.000018813979568 -2.986527632964356e-05 3.877527700395687e-06)
(-1.000016096730195 -2.109690527707374e-05 2.75694496719291e-06)
(-1.000014342448116 -1.256010777317402e-05 1.648662965503988e-06)
(-1.000013411538213 -4.169987676203028e-06 5.485961777150902e-07)
(-1.000066550930741 -0.0001207756959822341 1.42712145616411e-05)
(-1.000052074367323 -0.0001081839246046548 1.292554290532863e-05)
(-1.000040193221524 -9.525744530702881e-05 1.15066670930841e-05)
(-1.000030594921578 -8.241605399605927e-05 1.006210779331857e-05)
(-1.000022959322898 -6.992535630989685e-05 8.623703380268525e-06)
(-1.000016986168951 -5.792744413146701e-05 7.21057867850824e-06)
(-1.000012410777843 -4.646971926125498e-05 5.831995489799983e-06)
(-1.00000901166378 -3.552968363385025e-05 4.48984295181775e-06)
(-1.000006613149659 -2.503509550816358e-05 3.18069277059103e-06)
(-1.000005085260393 -1.487980072040212e-05 1.897441168507619e-06)
(-1.000004281472376 -4.936009949274559e-06 6.306088087634946e-07)
(-1.000052609352572 -0.0001469854657407675 1.76937095979826e-05)
(-1.0000375931586 -0.0001303366551952402 1.582737776609892e-05)
(-1.000025726229921 -0.0001137227985947842 1.39305555429462e-05)
(-1.0000165011505 -9.760188081675562e-05 1.205767146431715e-05)
(-1.000009440841701 -8.223130997930853e-05 1.024113505566686e-05)
(-1.000004124611525 -6.771723676035648e-05 8.496621335381198e-06)
(-1.000000198985495 -5.405637580757625e-05 6.827606236565147e-06)
(-0.9999973793558143 -4.116911641927068e-05 5.228987916684024e-06)
(-0.9999954468472816 -2.892448804669995e-05 3.689838622139336e-06)
(-0.9999942433625578 -1.715834604532068e-05 2.195428114097636e-06)
(-0.9999936196511645 -5.686389953782374e-06 7.286908946476555e-07)
(-1.000033929232701 -0.0001762648806480362 2.209444730023091e-05)
(-1.000018811700178 -0.0001544709938388065 1.94958080303015e-05)
(-1.000007458447146 -0.0001333699175198879 1.694778914972328e-05)
(-0.9999991034329628 -0.0001134090862380256 1.450760611643162e-05)
(-0.9999930746788415 -9.478763106218737e-05 1.220284489612191e-05)
(-0.9999888112347795 -7.753057408510496e-05 1.004018429310792e-05)
(-0.9999858626575017 -6.154606176700388e-05 8.012190882020599e-06)
(-0.9999838797760193 -4.666700024547073e-05 6.102292461685304e-06)
(-0.9999826023792853 -3.267991284416907e-05 4.28824149187796e-06)
(-0.9999818471622993 -1.934409190412764e-05 2.544426357896152e-06)
(-0.9999814697951048 -6.403838980095782e-06 8.433615207571973e-07)
(-1.000009113324473 -0.0002086868306214741 2.77043798239006e-05)
(-0.999994698195472 -0.0001804376920184759 2.408271247195358e-05)
(-0.9999846643223201 -0.0001539405994390733 2.065514312434203e-05)
(-0.9999779188640422 -0.0001295433859003216 1.747148932527067e-05)
(-0.9999735623295486 -0.0001073075247746133 1.454404994011487e-05)
(-0.9999708830422295 -8.711202434896741e-05 1.186103795277496e-05)
(-0.9999693354116556 -6.872625280807138e-05 9.396101801674749e-06)
(-0.9999685132068914 -5.185814371921903e-05 7.114667777310247e-06)
(-0.9999681239389401 -3.618428586427137e-05 4.977916079754083e-06)
(-0.9999679672886935 -2.136737319188838e-05 2.945098807103601e-06)
(-0.9999679159119454 -7.065253549043365e-06 9.747556296262901e-07)
(-1.000097114864224 -5.026450943912292e-06 1.002674721035108e-05)
(-1.000086118155701 -4.639293027519614e-06 9.506345315808537e-06)
(-1.000076153605502 -4.198271700950377e-06 8.828114244779163e-06)
(-1.00006730165417 -3.722539769324067e-06 8.021410004084059e-06)
(-1.000059601229021 -3.227213031475882e-06 7.112766147467994e-06)
(-1.00005306074675 -2.723431106632683e-06 6.125297033220424e-06)
(-1.000047668356662 -2.218698817335591e-06 5.078521509534145e-06)
(-1.000043400892247 -1.717390007982576e-06 3.988511808827812e-06)
(-1.000040231277298 -1.221326292100174e-06 2.868279673635528e-06)
(-1.000038134321707 -7.303738253085147e-07 1.728326026640099e-06)
(-1.000037004222186 -2.430275268250042e-07 5.772968735006161e-07)
(-1.000096068429154 -2.282256756380713e-05 1.054023371185402e-05)
(-1.000084875886837 -2.103719271118189e-05 9.966325445104838e-06)
(-1.000074778475614 -1.90144721075037e-05 9.232317277754759e-06)
(-1.000065845066166 -1.684152324998848e-05 8.369818540588274e-06)
(-1.000058102566027 -1.458654716679498e-05 7.406896679352392e-06)
(-1.000051547975428 -1.229932584811967e-05 6.367567279659578e-06)
(-1.000046159295014 -1.001295242752953e-05 5.271727619817071e-06)
(-1.000041904833458 -7.746247589701679e-06 4.13541839213973e-06)
(-1.000038750753024 -5.506466334903646e-06 2.971313706044937e-06)
(-1.000036666873559 -3.292044440217369e-06 1.789360296278566e-06)
(-1.00003554476578 -1.095255808963899e-06 5.975080370306277e-07)
(-1.000093886090651 -3.8717588101589e-05 1.159664342585937e-05)
(-1.000082310060245 -3.559522743823447e-05 1.090956303869946e-05)
(-1.00007195793604 -3.209517926494586e-05 1.005866237511506e-05)
(-1.00006287372923 -2.836553319029992e-05 9.080128940695714e-06)
(-1.000055059031619 -2.452033176170157e-05 8.005070065394686e-06)
(-1.00004848715201 -2.064118471978288e-05 6.859215031273262e-06)
(-1.000043115278404 -1.678081870959426e-05 5.663098219469481e-06)
(-1.000038894406154 -1.296760734292859e-05 4.432566901754053e-06)
(-1.000035777074149 -9.210420476135569e-06 3.179491037579017e-06)
(-1.000033723111181 -5.503397126849111e-06 1.912587116589537e-06)
(-1.000032619014275 -1.830459423493754e-06 6.38298794256787e-07)
(-1.000090381987961 -5.563686489318252e-05 1.325649901970475e-05)
(-1.000078253478 -5.094744681333186e-05 1.238354063054309e-05)
(-1.000067548781366 -4.577076094136586e-05 1.134345800288742e-05)
(-1.000058270218663 -4.031942120041877e-05 1.017944175388924e-05)
(-1.000050378217556 -3.475303776490082e-05 8.927043600613159e-06)
(-1.000043808462376 -2.918226185100179e-05 7.614300820248752e-06)
(-1.000038485717637 -2.367521745616495e-05 6.262371612861312e-06)
(-1.000034334435225 -1.826491237688637e-05 4.886463455430089e-06)
(-1.000031286542808 -1.295672079226764e-05 3.496901657527736e-06)
(-1.000029286912506 -7.735445609724595e-06 2.100242306872967e-06)
(-1.000028214915519 -2.571781745064299e-06 7.003785543593706e-07)
(-1.000085259872018 -7.399484745929131e-05 1.56146898776482e-05)
(-1.000072443956293 -6.739650893639024e-05 1.446172498930424e-05)
(-1.000061329910428 -6.025263932318842e-05 1.314214887168756e-05)
(-1.000051856006053 -5.28435204574241e-05 1.170860414168418e-05)
(-1.00004392187227 -4.53721126303375e-05 1.02022122180242e-05)
(-1.000037409331702 -3.797262939553299e-05 8.653475906322342e-06)
(-1.000032197928929 -3.072144434146378e-05 7.083670876953244e-06)
(-1.00002817590949 -2.364846261948541e-05 5.506430682778621e-06)
(-1.000025247607382 -1.674787513439304e-05 3.929343875746113e-06)
(-1.000023338172134 -9.987807301048446e-06 2.355469642368918e-06)
(-1.000022318487044 -3.318786125708324e-06 7.847403180088373e-07)
(-1.000078091898732 -9.420098509305125e-05 1.880530175588935e-05)
(-1.000064511269864 -8.522102987429422e-05 1.724600679000668e-05)
(-1.000052995792888 -7.571826493069108e-05 1.553020632094615e-05)
(-1.00004338969197 -6.604093297357682e-05 1.372218439291055e-05)
(-1.000035507326495 -5.642897289703804e-05 1.186911030498697e-05)
(-1.000029157794088 -4.703022660545996e-05 1.000330129507294e-05)
(-1.000024161550861 -3.791798930441453e-05 8.144817281492672e-06)
(-1.000020360866018 -2.910768427388796e-05 6.304016096998342e-06)
(-1.00001762588749 -2.057158593704586e-05 4.483879888349454e-06)
(-1.000015857823498 -1.225129037218938e-05 2.68204790588138e-06)
(-1.000014918805067 -4.068114959940333e-06 8.925688815467076e-07)
(-1.000068290442039 -0.0001166423004244077 2.300773884285315e-05)
(-1.000053961236131 -0.0001046546442526886 2.086941498794989e-05)
(-1.000042149813527 -9.229029802182435e-05 1.860375910812318e-05)
(-1.00003256671402 -7.995885122480399e-05 1.628796075586952e-05)
(-1.000024911165902 -6.79233483744657e-05 1.397438071053278e-05)
(-1.000018898348109 -5.632840124969445e-05 1.169507937610078e-05)
(-1.000014275386598 -4.522707090603987e-05 9.466241741554136e-06)
(-1.000010829506123 -3.460429879842415e-05 7.292095117578277e-06)
(-1.00000839121348 -2.439618196659056e-05 5.168180420128886e-06)
(-1.000006834701157 -1.450528350965819e-05 3.083995078254907e-06)
(-1.00000601473021 -4.812641936469138e-06 1.025108782779055e-06)
(-1.00005507423065 -0.0001416502710960278 2.845350682323007e-05)
(-1.000040159267461 -0.0001258526093872444 2.549838878863272e-05)
(-1.00002829999986 -0.0001100068435551107 2.247933230933563e-05)
(-1.000019022742323 -9.456402000251895e-05 1.948543620037764e-05)
(-1.00001187687652 -7.978415669529512e-05 1.657086619958463e-05)
(-1.000006461516619 -6.578165492954224e-05 1.376297171190381e-05)
(-1.00000243744841 -5.256443368206742e-05 1.106935485682152e-05)
(-0.9999995299770786 -4.006534157507956e-05 8.483588275186885e-06)
(-0.9999975268722011 -2.816615279893632e-05 5.989615398028861e-06)
(-0.9999962742834675 -1.671528613839128e-05 3.565029381920709e-06)
(-0.9999956233321837 -5.540683702134918e-06 1.183486097404083e-06)
(-1.000037432409657 -0.0001694444864246413 3.5432314162146e-05)
(-1.00002231780859 -0.0001488415297512533 3.133335776209894e-05)
(-1.000010861224142 -0.000128780614197188 2.729171257290888e-05)
(-1.00000234402716 -0.0001097116872583736 2.340268549883021e-05)
(-0.9999961288008288 -9.184707602538627e-05 1.971437173481564e-05)
(-0.9999916786250956 -7.523012812504783e-05 1.624112960169641e-05)
(-0.9999885590732434 -5.978903547387836e-05 1.29742218070198e-05)
(-0.9999864312252394 -4.537659617553918e-05 9.889713013028293e-06)
(-0.9999850411580431 -3.179821680365787e-05 6.954053401074459e-06)
(-0.99998420923206 -1.883084409412543e-05 4.127872074098125e-06)
(-0.9999837898387169 -6.235359948578183e-06 1.368480256275016e-06)
(-1.000014094430786 -0.0002000437083156115 4.429491954964959e-05)
(-0.9999994953952341 -0.0001734477965260608 3.860558647547736e-05)
(-0.9999891701573667 -0.0001483457746349618 3.318850569851745e-05)
(-0.999982089204151 -0.0001251085058917578 2.813061767682114e-05)
(-0.9999773953173864 -0.0001038300083091583 2.345855830498179e-05)
(-0.9999744034760677 -8.442417298781833e-05 1.915954712727094e-05)
(-0.9999725839164602 -6.669383691515493e-05 1.519640230961725e-05)
(-0.9999715391584085 -5.037740075231076e-05 1.151771319973418e-05)
(-0.9999709811201194 -3.517859365725905e-05 8.064353130242718e-06)
(-0.9999707114266126 -2.078428355198335e-05 4.773390381502966e-06)
(-0.9999705987162237 -6.874230806461126e-06 1.580246545876658e-06)
(-1.000097634926105 -4.81753122638634e-06 1.354336966786041e-05)
(-1.000086851569458 -4.452035459845396e-06 1.284915539080811e-05)
(-1.00007706339873 -4.033629993127512e-06 1.194000460929899e-05)
(-1.000068353579807 -3.580550696824418e-06 1.085526444769672e-05)
(-1.000060764817747 -3.107286852266444e-06 9.630654859892219e-06)
(-1.000054309791161 -2.624607662093962e-06 8.29743523742083e-06)
(-1.000048980938225 -2.139859712535477e-06 6.88213435821524e-06)
(-1.000044759062183 -1.65742541446971e-06 5.406720180211386e-06)
(-1.000041620489947 -1.179259788264278e-06 3.889093842669422e-06)
(-1.000039542700577 -7.054509146841389e-07 2.343809756576354e-06)
(-1.000038422460458 -2.347737764474963e-07 7.829443794959485e-07)
(-1.0000966502162 -2.18646883944905e-05 1.422518043809348e-05)
(-1.000085675717608 -2.018049545071657e-05 1.346091981144688e-05)
(-1.000075756171586 -1.826275871596982e-05 1.247843277718937e-05)
(-1.000066964065096 -1.619442492373223e-05 1.132005852467038e-05)
(-1.000059330903195 -1.404089121037631e-05 1.002357528978577e-05)
(-1.000052858650451 -1.185032507289294e-05 8.621473115008619e-06)
(-1.000047530164853 -9.655178968337437e-06 7.140822456192503e-06)
(-1.000043318162296 -7.474390200434839e-06 5.603588864876076e-06)
(-1.000040192528198 -5.3158915454543e-06 4.027262066520117e-06)
(-1.000038125971559 -3.179190863233827e-06 2.425693850518627e-06)
(-1.000037012688218 -1.057891115999136e-06 8.100661124588487e-07)
(-1.000094599091864 -3.706102348677326e-05 1.562650889853679e-05)
(-1.00008324963978 -3.412006622638409e-05 1.471432294142264e-05)
(-1.000073077328203 -3.080599313975968e-05 1.357835282501316e-05)
(-1.000064131712302 -2.725981929385675e-05 1.226702188379994e-05)
(-1.000056420717896 -2.359099256143966e-05 1.082219717546587e-05)
(-1.000049924078919 -1.987863053898315e-05 9.278722850196886e-06)
(-1.000044605003353 -1.617464926129128e-05 7.664603981011981e-06)
(-1.00004041977476 -1.250789108220295e-05 6.001637174499622e-06)
(-1.00003732529061 -8.888623279912354e-06 4.306325569240052e-06)
(-1.000035284700148 -5.31302254591633e-06 2.590959774476002e-06)
(-1.000034187217654 -1.767459080092998e-06 8.647859951701785e-07)
(-1.000091312220375 -5.318810601018253e-05 1.782470785656792e-05)
(-1.000079420687261 -4.878098762861603e-05 1.66701786674433e-05)
(-1.000068895924654 -4.388880774741626e-05 1.528635639568243e-05)
(-1.000059749064517 -3.871411651390469e-05 1.373098898536787e-05)
(-1.00005194971444 -3.341035821335935e-05 1.205195199491331e-05)
(-1.000045442307151 -2.808520111174939e-05 1.028730320198419e-05)
(-1.000040159425397 -2.280624412320799e-05 8.466037974158333e-06)
(-1.000036032136315 -1.760777780046575e-05 6.609259936490191e-06)
(-1.000032997659661 -1.249772883149537e-05 4.73156295516433e-06)
(-1.00003100480736 -7.464300769310958e-06 2.84249334006136e-06)
(-1.000029935755027 -2.482117504823492e-06 9.480196883895418e-07)
(-1.000086520749541 -7.061634882443715e-05 2.094060059074168e-05)
(-1.000073950341517 -6.443331269734283e-05 1.942225610740414e-05)
(-1.000063010457089 -5.769913396735928e-05 1.767336242603512e-05)
(-1.000053653262767 -5.068116177064915e-05 1.576430440485239e-05)
(-1.000045791802494 -4.35751583922617e-05 1.37505660768561e-05)
(-1.000039319964829 -3.651259924775107e-05 1.167374928603884e-05)
(-1.000034127580042 -2.957040330298081e-05 9.563285468815041e-06)
(-1.000030111259468 -2.278132237021331e-05 7.438450222119639e-06)
(-1.000027181813579 -1.614393171261999e-05 5.310434391926463e-06)
(-1.000025269088821 -9.631717101721335e-06 3.184339190630457e-06)
(-1.000024246782131 -3.201144583908681e-06 1.061044652105283e-06)
(-1.000079838508857 -8.970484600934181e-05 2.514402356209089e-05)
(-1.000066503472405 -8.13201313727423e-05 2.309996914275607e-05)
(-1.000055143773727 -7.239013654114526e-05 2.083546336308238e-05)
(-1.000045625088942 -6.324797340595548e-05 1.843658959669419e-05)
(-1.000037781151917 -5.412650869240933e-05 1.596728384555609e-05)
(-1.000031437552062 -4.517240666723765e-05 1.347204320514736e-05)
(-1.000026428148519 -3.646185674688318e-05 1.097916171646301e-05)
(-1.000022605664725 -2.801583816502963e-05 8.503994111701686e-06)
(-1.000019848054393 -1.981382457039157e-05 6.051981098012402e-06)
(-1.000018062020231 -1.180556357172066e-05 3.621333387918475e-06)
(-1.000017112321124 -3.921034623405271e-06 1.205376782720263e-06)
(-1.000070738809325 -0.0001107829121624883 3.066066862542902e-05)
(-1.000056635632049 -9.96368146775063e-05 2.787120227777463e-05)
(-1.000044938299122 -8.806013624762536e-05 2.489430865292635e-05)
(-1.000035389634919 -7.644697176689697e-05 2.183380806810262e-05)
(-1.000027716235756 -6.505568056192064e-05 1.876135891378891e-05)
(-1.000021655312883 -5.403349977117781e-05 1.572198842792284e-05)
(-1.000016971011539 -4.344073391537863e-05 1.273965243559888e-05)
(-1.000013463227292 -3.327226959215497e-05 9.822260368914534e-06)
(-1.000010971538985 -2.347558373028139e-05 6.965945735065561e-06)
(-1.000009376298874 -1.396528419164712e-05 4.158573622195064e-06)
(-1.000008534337167 -4.634702832850827e-06 1.382593889583084e-06)
(-1.000058527425453 -0.0001341171555886426 3.777930803302832e-05)
(-1.000043780696489 -0.0001194990001791573 3.394431087411225e-05)
(-1.000031953930816 -0.0001047245610776847 2.999620274035657e-05)
(-1.000022620633257 -9.023305876154632e-05 2.60560032759066e-05)
(-1.000015367679922 -7.628631927558707e-05 2.219937566048418e-05)
(-1.000009822605415 -6.300882759813239e-05 1.846664272734506e-05)
(-1.00000566691834 -5.042311073977245e-05 1.487171974051109e-05)
(-1.000002640514539 -3.847872645612595e-05 1.140948520140072e-05)
(-1.000000541068992 -2.707483388786348e-05 8.061560834307959e-06)
(-0.9999992211393334 -1.607718772819735e-05 4.800702425635111e-06)
(-0.9999985327259941 -5.330755213375788e-06 1.594098848876763e-06)
(-1.000042315490622 -0.0001598577031813873 4.68575903472398e-05)
(-1.000027243037538 -0.0001408956819488602 4.156767508334231e-05)
(-1.000015672357704 -0.0001222782736525209 3.630866787413545e-05)
(-1.000006951393116 -0.0001044551482802804 3.121283618583962e-05)
(-1.000000492004592 -8.765394995302607e-05 2.63508375568502e-05)
(-0.9999957921043474 -7.194126383347462e-05 2.174847115732338e-05)
(-0.9999924409103972 -5.727161976232248e-05 1.740020927324876e-05)
(-0.9999901149504399 -4.35245137164753e-05 1.327945591415912e-05)
(-0.9999885700002578 -3.053107733580478e-05 9.345961143612586e-06)
(-0.9999876322201995 -1.809257515456027e-05 5.550985959407675e-06)
(-0.9999871547015914 -5.992908515606296e-06 1.840818216594158e-06)
(-1.00002099984928 -0.000187956059820804 5.832310762141505e-05)
(-1.000006201266961 -0.0001636240966784718 5.102423222244285e-05)
(-0.9999955133971475 -0.0001404475896908955 4.401268594185425e-05)
(-0.9999879963095571 -0.0001188228435871071 3.741579163948998e-05)
(-0.9999828537954749 -9.888402282531847e-05 3.128136365808817e-05)
(-0.9999794402752248 -8.058985994441304e-05 2.560386925506314e-05)
(-0.9999772501682231 -6.378728785871868e-05 2.034369387408972e-05)
(-0.9999758999721131 -4.825556482834776e-05 1.544052987224243e-05)
(-0.9999751091304304 -3.373532102202145e-05 1.082220419109531e-05)
(-0.9999746829705133 -1.994665137894373e-05 6.410189547455142e-06)
(-0.9999744851921932 -6.599681280472432e-06 2.122838162398601e-06)
(-1.000108761910239 -5.578327928468115e-06 1.432728602240367e-06)
(-1.000108860100394 -5.496359227752395e-06 6.36876893677824e-06)
(-1.000108045457013 -2.499915261133819e-05 6.718399414818503e-06)
(-1.000109049601929 -5.336916407916511e-06 1.035824742898297e-05)
(-1.000108272576683 -2.426596628435377e-05 1.091996194324157e-05)