/*--------------------------------*- C++ -*----------------------------------*\
  =========                 |
  \\      /  F ield         | OpenFOAM: The Open Source CFD Toolbox
   \\    /   O peration     | Website:  https://openfoam.org
    \\  /    A nd           | Version:  7
     \\/     M anipulation  |
\*---------------------------------------------------------------------------*/
FoamFile
{
    version     2.0;
    format      ascii;
    class       volScalarField;
    location    "0";
    object      mag(grad(Phi));
}
// * * * * * * * * * * * * * * * * * * * * * * * * * * * * * * * * * * * * * //

dimensions      [0 1 -1 0 0 0 0];

internalField   nonuniform List<scalar> 
12681
(
1.000096566621244
1.000085350192627
1.000075204643494
1.000066207400591
1.000058393308106
1.000051766227059
1.00004630975425
1.000041996530232
1.000038795897529
1.000036679864686
1.000035539978174
1.000095454203395
1.000084037212352
1.000073757469395
1.000064679868026
1.000056826352992
1.000050188620391
1.000044739516662
1.000040442697518
1.000037260409483
1.000035159442464
1.000034028663448
1.000093131314301
1.000081322340537
1.000070786366289
1.000061561338396
1.000053642021159
1.000046994862549
1.000041570666499
1.000037314850214
1.000034175374223
1.000032108590562
1.000030998206531
1.000089393852118
1.000077022373949
1.000066134679914
1.000056723483145
1.000048739325663
1.000042108555937
1.000036747655119
1.00003257410739
1.000029514292995
1.000027508969634
1.000026434646884
1.000083915153507
1.000070848955915
1.000059559709344
1.000049970556464
1.000041966688467
1.000035417062472
1.000030190342102
1.000026165982706
1.000023241552136
1.000021337315598
1.000020321318813
1.000076220800455
1.000062392813146
1.000050724475083
1.00004103666474
1.000033122902731
1.000026774728083
1.000021798456319
1.000018025417099
1.000015317648881
1.000013570686052
1.000012644073663
1.000065654497909
1.00005110400952
1.000039188799961
1.000029584291052
1.000021960315577
1.000016008663355
1.000011458592132
1.000008084162671
1.000005706547799
1.000004193656435
1.000003398343666
1.000051335920171
1.000036270520138
1.000024402352546
1.000015206477621
1.000008192134052
1.000002928438575
0.9999990546177352
0.999996281017953
0.9999943854009578
0.9999932075317133
0.9999925980268123
1.000032113845406
1.000016999736817
1.000005704092851
0.999997436275218
0.9999915064692574
0.9999873414054733
0.9999844824940352
0.9999825753986684
0.9999813567746443
0.9999806415130523
0.9999802860308279
1.000006522776528
0.9999922113567199
0.9999823351301286
0.9999757685563401
0.9999715904500791
0.9999690755922422
0.9999676704694711
0.9999669645660652
0.9999666633120962
0.999966565531096
0.9999665460846385
1.000096752631274
1.000085610156594
1.000075525454003
1.000066576988695
1.000058801001456
1.000052202905882
1.000046767846675
1.000042469887674
1.000039279585571
1.000037169897803
1.000036033263343
1.000095662818136
1.000084321342621
1.000074102853496
1.000065073613587
1.000057257265263
1.000050647312493
1.000045218354228
1.000040935625433
1.000037762699866
1.000035667393396
1.000034539483009
1.00009338809478
1.000081657423942
1.000071183120508
1.000062005217344
1.000054120814351
1.000047498698159
1.000042091843183
1.000037847559271
1.000034715357937
1.000032652767603
1.000031544433257
1.000089730674782
1.000077440728362
1.000066614240637
1.000057247227645
1.000049293613102
1.00004268292754
1.000037334467354
1.000033168079289
1.00003011202102
1.000028108440648
1.000027034807132
1.000084374431671
1.000071391948107
1.000060160967388
1.000050609831287
1.000042628669022
1.000036090821138
1.000030868646569
1.000026844577667
1.000023918468464
1.000022012231409
1.000020994858803
1.00007686111473
1.000063115334031
1.000051497191992
1.000041835586596
1.000033931162195
1.000027581435051
1.000022597516291
1.000018814433044
1.000016096956531
1.000014342528353
1.000013411547058
1.000066558325467
1.00005208030243
1.000040197824531
1.000030598368299
1.000022961804803
1.000016987872713
1.000012411874552
1.000009012305033
1.000006613468094
1.000005085372897
1.000004281484757
1.000052620310893
1.000037601777351
1.00002573279322
1.000016505986178
1.000009444275103
1.000004126940423
1.000000200469849
0.9999973802169358
0.999995447272404
0.9999942435121731
0.9999936196675977
1.000033945010902
1.000018823820637
1.00000746748446
0.9999991099690144
0.9999930792456753
0.9999888142907112
0.9999858645835854
0.9999838808835606
0.9999826029224776
0.9999818473526368
0.9999814698159654
1.000009135483134
0.9999947147644286
0.9999846763846766
0.9999779274076017
0.9999735681929207
0.9999708869069365
0.9999693378175216
0.9999685145768773
0.9999681246060024
0.9999679675213201
0.9999679159373802
1.000097114927118
1.000086118211644
1.000076153653279
1.000067301693268
1.000059601259523
1.000053060769217
1.000047668372018
1.000043400901675
1.000040231282157
1.000038134323467
1.000037004222382
1.000096068745107
1.000084876157759
1.00007477869899
1.000065845243
1.000058102699834
1.000051548071333
1.000046159359036
1.00004190487201
1.000038750772599
1.000036666880578
1.000035544766558
1.000093886907341
1.000082310753208
1.000071958501638
1.000062874172728
1.000055059364265
1.000048487388552
1.00004311543523
1.000038894500053
1.000035777121618
1.000033723128153
1.000032619016153
1.000090383623411
1.00007825485239
1.00006754989311
1.000058271083251
1.000050378861257
1.000043808917147
1.000038486017492
1.000034334613961
1.000031286632858
1.00002928694463
1.000028214919071
1.000085262731302
1.000072446331836
1.000061331811859
1.000051857470742
1.000043922953579
1.000037410090075
1.000032198425906
1.000028176204267
1.000025247755344
1.000023338224785
1.000022318492859
1.000078096512104
1.000064515049645
1.000052998779951
1.000043391966723
1.000035508988988
1.000029158950008
1.000024162302899
1.000020361309508
1.000017626109133
1.000015857902141
1.00001491881374
1.000068297508947
1.000053966929887
1.000042154245139
1.000032570043269
1.000024913570274
1.00001890000291
1.000014276454131
1.000010830131432
1.000008391524419
1.000006834811113
1.000006014742316
1.000055084667276
1.000040167511654
1.000028306303094
1.000019027403252
1.000011880196533
1.000006463774927
1.000002438891181
0.9999995308156805
0.999997527286806
0.9999962744295231
0.9999956233482337
1.000037447392537
1.000022329376121
1.00001086988869
1.000002350319315
0.9999961332131168
0.9999916815867935
0.9999885609447944
0.999986432303675
0.9999850416877938
0.9999842094178829
0.9999837898590935
1.000014115420252
0.9999995111825066
0.9999891817114647
0.9999820974260332
0.9999774009830017
0.9999744072234282
0.9999725862560236
0.9999715404937166
0.9999709817714219
0.9999707116540051
0.9999705987411006
1.000097635029411
1.000086851661911
1.000077063478141
1.000068353645131
1.000060764868947
1.000054309829027
1.000048980964195
1.000044759078172
1.000041620498205
1.000039542703572
1.000038422460792
1.000096650556378
1.000085676011807
1.000075756416187
1.000066964260284
1.000059331051996
1.000052858757826
1.000047530236957
1.000043318205928
1.000040192550436
1.000038125979555
1.000037012689105
1.000094599900641
1.000083250330068
1.000073077894852
1.000064132159062
1.000056421054705
1.000049924319534
1.000044605163528
1.00004041987099
1.000037325339385
1.000035284717618
1.00003418721959
1.000091313793579
1.000079422015896
1.000068897004529
1.000059749908128
1.000051950345159
1.000045442754435
1.000040159721284
1.000036032313167
1.000032997748949
1.000031004839256
1.000029935758556
1.000086523461895
1.000073952605787
1.000063012277743
1.000053654671238
1.000045792846383
1.000039320699523
1.000034128062958
1.000030111546619
1.000027181957989
1.000025269140275
1.000024246787818
1.000079842848102
1.000066507045453
1.000055146610794
1.00004562725895
1.000037782744174
1.000031438663048
1.000026428873505
1.000022606093317
1.000019848268995
1.000018062096472
1.000017112329538
1.000070745415323
1.000056640983895
1.00004494248609
1.000035392795234
1.000027718527807
1.000021656896249
1.00001697203622
1.000013463829044
1.000010971838796
1.000009376405034
1.000008534348862
1.000058537132228
1.000043788412265
1.000031959864129
1.000022625043617
1.000015370836081
1.000009824760959
1.000005668300162
1.000002641319932
1.00000054146801
0.9999992212800949
0.9999985327414732
1.000042329365094
1.000027253826976
1.000015680492724
1.000006957335635
1.000000496193381
0.99999579492863
0.9999924427018136
0.9999901159858138
0.9999885705100104
0.999987632399279
0.9999871547212434
1.000021019213406
1.000006215955028
0.9999955242285171
0.9999880040690551
0.999982859173854
0.9999794438504401
0.9999772524096161
0.9999759012556488
0.999975109758042
0.9999746831899986
0.9999744852162249
1.000108761926823
1.000108860135776
1.000108045792025
1.000109049669809
1.000108272930686
1.000106626731493
1.000109317585027
1.000108593742324
1.000107061579358
1.000104544200794
1.000107928036461
1.000106158388888
1.000103238533
1.00009881885573
1.000092378756058
1.000083175254053
1.00007017395289
1.000051961814725
1.000026645908676
1.000106318393205
1.000103470321744
1.000099163615146
1.000092896070029
1.000083952869396
1.000071342067749
1.000053713912328
1.000029268615637
1.00010391640486
1.000099826006373
1.000093887971168
1.000085440255467
1.0000735699993
1.000057044503928
1.000034234716818
1.00010075574451
1.000095275689233
1.000087513137985
1.000076660934992
1.000061641335483
1.000041049108352
1.000121493477359
1.000121015406512
1.000119961321288
1.000118122303064
1.000115150492487
1.000110513175375
1.000103423681443
1.000092742270234
1.000121492416874
1.00012102915777
1.0001200078271
1.000118226393172
1.000115349028172
1.000110862630465
1.000104011714847
1.000093705659895
1.000078391715119
1.000121486918304
1.000121052003972
1.000120093292757
1.000118421769535
1.000115724276482
1.000111524507289
1.000105125162758
1.000095526622473
1.000081317507311
1.00006053503104
1.000121470834306
1.000121075438831
1.000120203894246
1.000118684974362
1.000116236349018
1.000112431416897
1.000106650834829
1.00009801571881
1.000085300159556
1.00006682377563
1.000134485744411
1.000134438510268
1.000134259743213
1.00013376651007
1.000132645899454
1.000130401885509
1.000126271764188
1.000119099248116
1.000107145662836
1.000076839142085
1.000087813826276
1.000053413151931
1.000147433932315
1.000134375776613
1.000134336836727
1.000134177461297
1.000133721004417
1.000132665873238
1.000130535199017
1.000126598085771
1.000119750826006
1.000108341873879
1.000089919911433
1.000055889220863
1.00014698389554
1.000134156603801
1.000147440848188
1.000134133322283
1.000134010555698
1.000133623500819
1.00013269180892
1.000130774393124
1.000127199396667
1.0001209598942
1.000110562714893
1.000093815556796
1.000146322601309
1.000133830068642
1.000146777707471
1.000133828115996
1.000147639938677
1.000133755225659
1.000133462692574
1.000132698886126
1.000131070733708
1.00012798487727
1.000122561655587
1.000113513359644
1.000098977947761
1.000172890156852
1.000160604845169
1.000147661712982
1.00017450118506
1.000161623832595
1.000148119338575
1.000177746953343
1.000163638922672
1.000148975217709
1.000182668452485
1.000166592890557
1.000150096602159
1.000189308261187
1.000170367878782
1.000151246105592
1.00019767969629
1.000174737425861
1.000152026917097
1.000207708680487
1.000179283483724
1.000151792762865
1.000219125410024
1.000183255216202
1.000149503574706
1.000231260621606
1.00018532984137
1.0001434966864
1.000242648900598
1.000183211846365
1.000131127204488
1.000250190378314
1.000172996330829
1.000108205613372
1.000172417132015
1.000160254420071
1.000174006945366
1.000161263331007
1.000147891476362
1.000177209802069
1.000163259266393
1.000148749295103
1.000182066017243
1.00016618753271
1.000149879506487
1.000188618059392
1.000169935629272
1.000151053893485
1.000196881375381
1.000174287833012
1.000151892015586
1.000206789846657
1.000178847076529
1.000151776368815
1.00021809508506
1.000182902862376
1.000149717263359
1.000230178757595
1.000185208841701
1.000144140350029
1.000241688417929
1.000183610800357
1.000132556484385
1.00024975826301
1.000174450039815
1.000111056844747
1.000171487274391
1.000159564314512
1.000173035644476
1.000160553292361
1.000176154645224
1.000162511203219
1.000148301432282
1.000180883169831
1.000165388016798
1.000149446879786
1.000187263162807
1.000169081067792
1.000150666077966
1.000195313381805
1.000173394250331
1.00015160895808
1.000204981060038
1.000177968576483
1.000151711031818
1.000216054349254
1.000182166280753
1.000150074680948
1.000228003127311
1.000184878349941
1.000145285278986
1.000239677979793
1.000184205802494
1.000135130889649
1.000248658933881
1.000176943688123
1.000116186970786
1.000170131999715
1.000158555532447
1.000171620602
1.000159515192327
1.000174618618834
1.000161416889731
1.000179162702727
1.000164216714883
1.000148802806738
1.000185293451759
1.000167824855422
1.0001500781043
1.000193032734903
1.000172070648648
1.00015115610411
1.000202342563436
1.000176643954825
1.00015154202246
1.000213051869724
1.000180998997998
1.000150457822877
1.000224726290867
1.000184197958665
1.000146693300169
1.000236433804694
1.000184658543724
1.00013838434983
1.000246323547505
1.000179756550601
1.000122689923271
0.9999835496632559
0.9999932909828561
0.9999797540510997
0.9999708851229998
0.9999653976559121
1.000003045474368
1.000013105947029
1.000040332948287
1.000060882560076
1.000023189428077
1.00006753903207
1.000030501006091
1.000076302988011
1.000201281921654
1.000193668885325
1.000184063441225
1.000204483534762
1.000196412422653
1.000186262770741
1.000211067537031
1.000202030964414
1.000190738370925
1.000221413351846
1.000210796788653
1.000197644917677
1.000236137290834
1.000223142052962
1.000207214902968
1.000256156768971
1.000239688523648
1.000219754865119
1.000282789726067
1.000261288493021
1.000235630756536
1.00031790287526
1.000289076035625
1.000255228746635
1.000364124853562
1.000324524301133
1.000278865539313
1.000425127007388
1.000369501129265
1.000306603541284
1.00051018818105
1.000421204115773
1.000337914865862
1.000200500742297
1.000192974310756
1.000183473624572
1.000203649026392
1.00019567403352
1.00018564018447
1.00021012058371
1.000201200866676
1.000190048011657
1.000220282303997
1.000209818417888
1.000196847241206
1.000234729081098
1.00022194451163
1.00020626346218
1.000254344205148
1.000238179200783
1.000218594160319
1.000280392334389
1.000259343309592
1.000234195238464
1.000314656994059
1.000286527010138
1.000253445650427
1.000359635905106
1.000321145548656
1.000276668667633
1.000418794914786
1.000364997007952
1.000303975408611
1.000500862026296
1.000414103008287
1.000334986923914
1.000198969050031
1.000191611671887
1.000182315555408
1.000202014059138
1.000194226414024
1.000184418396516
1.000208268084793
1.000199575517356
1.000188694500372
1.000218074285296
1.000207906098278
1.000195285278212
1.000231987156005
1.000219608764879
1.000204403002099
1.000250825981456
1.000235242403503
1.00021632747899
1.000275756253096
1.000255568211283
1.000231394240206
1.000308408040817
1.000281593142675
1.000249965128986
1.000351037209785
1.000314623912493
1.000272368762577
1.000406696450945
1.000356346816976
1.000298812411379
1.000482334333836
1.000376317000943
1.000329408314515
1.00019674581656
1.000189632041937
1.000180630893534
1.000199643941155
1.000192125621438
1.000182642519959
1.000205589089963
1.000197221656962
1.000186730202335
1.000214891885523
1.000205144506631
1.000193023138763
1.000228051761463
1.000216247324247
1.000201714865592
1.000245801537247
1.000231032474669
1.000213059905423
1.000269174660174
1.000250179174229
1.000227362935426
1.000299603061454
1.00027457831191
1.000244952220497
1.000339058818351
1.000305375610934
1.000266122089272
1.000390274926159
1.000344034592303
1.000291010899328
1.000428996587143
1.00039247731368
1.000319288004992
0.9999287133797292
0.9999209803137592
0.9999183170087167
0.9999188006067363
0.9999210563185229
0.9999241277167676
0.9999273643422242
0.9999303333152701
0.9999327537370007
0.9999344501831753
0.9999353949914448
0.9999339944492458
0.9999256656651848
0.9999224163696726
0.9999223656467391
0.9999241578156325
0.9999268421123733
0.9999297667468234
0.9999324944949398
0.9999347394074189
0.9999363215766104
0.9999372054357002
0.9999439802985279
0.9999345815530917
0.9999302589230149
0.9999292177502308
0.999930143344549
0.9999320992860018
0.9999344339409749
0.9999367037634203
0.9999386145391039
0.9999399787108034
0.9999407461594114
0.9999576614778091
0.9999469125834204
0.9999411969779857
0.9999388461166491
0.9999386098089492
0.9999395786636778
0.9999411070742172
0.9999427470865889
0.9999441961075088
0.9999452580236489
0.9999458637416904
0.9999727599610601
0.9999606558619784
0.999953475275577
0.9999497008188107
0.9999481682089757
0.9999480120353142
0.9999486052964139
0.9999495044497596
0.999950404386664
0.9999511041121806
0.9999515151033048
0.9999764820572081
0.9999640874984703
0.9999565797567466
0.9999524811661714
0.9999506505899847
0.9999502346780741
0.9999506116730189
0.9999513394409133
0.9999521123971379
0.9999527284035054
0.9999530944023785
0.9999625368914117
0.9999578386690264
0.9999554515040854
0.9999545470334672
0.9999545151230137
0.999954917576118
0.9999554488124792
0.999955905137261
0.999956185217321
0.9999606997478773
0.9999601093258046
0.9999600645204118
0.9999602618327421
0.9999604968400544
0.9999606575997991
0.999991753348209
0.9999441706039489
0.9999499836096292
0.9999608832008088
0.9999756539549846
1.000019268460324
1.000009768140399
0.9999700834447901
1.000016012746257
0.9999762521095802
1.000027199018599
0.9999876576665776
1.000041786695898
1.00000289656378
1.000237311330897
1.000148393834823
1.000068084755934
1.000237914621514
1.000151800505368
1.000073538675534
1.000212184599933
1.000157869216631
1.000083235866086
1.000251040067943
1.000165240981035
1.000095321502625
1.000685192351749
1.000547349612939
1.000381853380977
1.000672238977463
1.000542942696003
1.000383058009791
0.9999706408475442
0.999962265710213
0.9999956675827124
1.000057249899147
1.000644128042692
1.00053085446496
1.00045916976104
1.000604234710664
1.000515687415763
1.000344014529957
1.000696459921978
1.000650771259773
1.000738422800036
1.000728522024062
0.9998727949676872
0.9998724844672079
0.9998767192090092
0.9998832564169327
0.9998906238156169
0.9998978808021227
0.9999044422121172
0.999909954440982
0.9999142110493556
0.9999170968419154
0.9999186739961641
0.9998802102203241
0.9998788167645708
0.9998820777520293
0.999887782269987
0.9998944613488454
0.9999011645885804
0.9999072924792977
0.9999124769353623
0.9999164990038432
0.999919233836784
0.9999207310434555
0.9998941635226991
0.9998908194467144
0.9998922964498727
0.9998964581309028
0.9999018512344694
0.9999075132120695
0.9999128217433786
0.9999173842305464
0.9999209599109053
0.9999234068293921
0.9999247513622922
0.9999131660991809
0.9999073255150207
0.9999064780427149
0.999908598213304
0.9999122677383531
0.9999165194850309
0.9999207090071592
0.9999244164913882
0.9999273755111009
0.9999294233264727
0.9999305557800215
0.9998809967939991
0.9998895237909123
0.9999054193870222
0.9999268549087484
0.9999378960061501
0.9999012026498301
0.9999488194246878
0.9999107312699348
0.999967215454203
0.9999282129439813
0.9999910669780767
0.9999515271103885
1.000247376601872
1.000107516154988
0.9999558575138709
1.000250129264832
1.000111516099615
1.000011061448721
1.000254513193769
1.000207035824196
1.000029196669711
1.000218820365832
1.000094902992157
1.000050302796004
1.00079676130435
1.000692283652203
1.000292552012201
1.000757606198824
1.000684386096576
1.000720874140105
1.000504604806927
1.000338709521407
1.000854288278614
1.000729587099257
1.000340183137845
1.0003504305887
1.000830013422268
1.000619440351491
1.000899996162922
1.000915573989226
1.000883454952006
1.000715799390842
1.000897233705381
1.000879369656585
1.000683852330689
1.000688256371348
1.000918104163986
1.000922299347154
1.000801953400261
1.000805513691911
1.000676394790231
1.000741433898127
1.000658870725179
1.000902048911035
1.000881184920107
1.000785218237707
1.000777894355769
1.000942156338183
1.000791684399325
1.000829771414358
1.000596344585751
1.000704041874054
1.000597009015008
1.000995909209444
0.9998332070501079
1.000963772939209
1.000969878003821
1.000810701108692
1.000950893850389
1.000928388708798
0.9998035568823378
0.9998146743598504
0.9998287133493516
0.9998433641002292
0.999857282010887
0.9998697182005832
0.9998802823744907
0.99988879221279
0.9998951790129349
0.9998994294702593
0.999901727305471
0.9997187657476255
0.9997466124714484
0.9997740067277501
0.9997991458970501
0.9998211949864508
0.999839857335058
0.9998551130122764
0.999867067579812
0.999875866272961
0.9998816459504761
0.9998847462529648
0.9996186875735553
0.9996691437857029
0.9997136579470997
0.9997516531694155
0.9997833138235162
0.9998091250434277
0.9998296442381456
0.9998453940603399
0.9998568139136755
0.9998642396133852
0.9998681985857111
0.999813832170415
0.9998231152806362
0.9998356225514666
0.9998490343397286
0.9998619710026212
0.9998736438761274
0.9998836260684385
0.9998917048310123
0.99989778788037
0.9999018449126758
0.9999040409803737
0.9997328975563253
0.9997577210572386
0.9997827976585837
0.9998061589121183
0.9998268545662978
0.9998444963712022
0.9998589928957394
0.9998703958531099
0.9998788114275359
0.9998843495802467
0.9998873235895919
0.9996375378398159
0.9996834638254047
0.9997246465431003
0.9997601871066789
0.9997900428188737
0.9998145311729629
0.9998340884488741
0.9998491516366017
0.9998601009172907
0.999867232711691
0.9998710388776779
0.9998330351556657
0.9998390412369873
0.999848753094517
0.9998598743614726
0.9998709806996904
0.9998812200114465
0.999890103298303
0.999897364662239
0.9999028699143829
0.9999065581961399
0.9999085599875214
0.9997589842963444
0.9997785672006283
0.999799443725108
0.9998195284016407
0.999837705013876
0.9998534333599041
0.9998664982507914
0.9998768562444569
0.9998845435682797
0.9998896215280091
0.9998923545523211
0.9996723766642062
0.9997102707096884
0.9997453892436374
0.9997764114115848
0.9998029150329847
0.9998249278521226
0.9998426737779538
0.9998564376295385
0.9998664931502002
0.9998730653009923
0.9998765800438575
0.9998590244945111
0.9998608103130382
0.9998668819917031
0.9998749781935041
0.9998836361294651
0.9997939942083917
0.9998068601023341
0.9998222983290425
0.999838074518833
0.9997184864086867
0.9997463248824725
0.9997736908141869
0.9997988141872364
0.999799231793894
0.999693768461363
0.9995640929484285
0.9998115554323724
0.9997120605179368
0.9995894174568429
0.9998343234591677
0.9997442681271672
0.9996340561524235
0.9998649456600809
0.9997873807012638
0.9996933929377118
0.9999035534110334
0.999808058290848
0.999191607540616
0.99980681100326
0.9998518110336836
0.9998218858001142
0.9996804314536758
0.9997026146432197
0.9998802906430985
0.9998478882888646
0.9997662399832772
0.9997405269275802
0.9999191645018916
0.9998830311616168
0.9998822996589982
0.9997927993087857
0.9995122229685741
0.9995043516490123
0.9995290636715793
0.9995495368173429
0.9995559902277111
0.9995830133484451
0.9996579340542057
0.9997961003822023
1.000336482466742
1.000067210885153
0.9997649269744827
1.000162257467012
0.9997949923378598
0.9997764032755683
1.000216684704429
1.0000614267873
0.9998778483890475
1.000183141447924
0.9998504114106584
0.999742622344402
1.000238472699461
1.00003054855647
0.9999460424857969
1.000198376165946
0.9998729669382863
0.9996975041722818
1.000040609055536
0.999958506259891
0.999724166697637
0.9996632183748186
0.999537650442011
0.9993261472714492
0.9991251573815446
1.000021402854662
0.9997916503962806
0.9995668426576033
0.9996833430203622
0.9993516976058089
0.9991655240565955
1.000041298064174
0.9998132369578111
0.9996430243681068
0.9997285830333058
0.9994974225765427
0.9993334334901124
1.000124650769058
0.9998291265482944
0.9999148867538856
0.9996771662571953
1.000974119864065
1.000611126478088
1.000304037102651
1.001256476928972
1.000552068594561
1.000228051828029
1.000959093356047
1.001243943589159
1.001659133539155
1.000490196150312
1.000041373803266
1.002186735975642
1.000917175505514
0.9996290664599277
1.000600563154893
1.000442327735038
1.000552390347113
1.000249842779902
1.000908518667948
1.000710426533357
1.000325527076198
1.001167602663201
1.000811622689195
1.000258307861806
1.001060691373973
1.000853347401975
1.000282859225219
1.001639431575553
1.000496305349968
1.000100844056388
1.002158396200587
1.000926776787973
0.999774912224897
1.001519923977445
1.000925105273054
1.00011943921086
1.001983326726855
1.000963835888897
0.9998197082442627
1.001354712810339
1.000881346389745
1.000196218039219
1.001737395338508
1.000965738641457
1.000001067111528
1.000958326841062
1.001249812053915
1.001127818461595
1.002491216406125
1.001664439516976
1.002249715287476
1.001466791909876
1.001930689689317
1.001029618419609
1.001352725261713
1.001014025379888
1.001338138567917
1.001835651377274
1.002531817918897
1.001811131091793
1.000025479987782
1.000159487772524
1.000009236486055
0.9998451233540604
0.9998218178742569
0.9999816487651229
0.9998718833393382
0.9997442665132439
0.9997752886570908
0.9997020976406824
0.9998061745903036
0.9999420645780922
0.9998887145286935
0.9997995973219367
1.00016725086038
1.00007545208452
1.000035449529223
0.9998976460925
0.9998562955328961
0.999896909352875
0.9999236208393493
1.000091449364575
0.9995692500335288
1.000141291294039
0.999916611443368
0.9999910055481604
0.9999799452273322
1.000143604007527
0.9996705330771717
0.9999383805317296
0.9996330109035192
0.999770743538928
0.9994837012478458
0.9997477433271649
0.999448267389581
0.9996442593288895
0.9994450291693968
0.9993815042612834
0.9997023075729055
0.9996155893073699
0.9994108942900264
0.9993505892715119
0.9995042962472243
0.9993591182694939
0.9993787244340359
0.9990199826376186
0.999382242126199
0.9995229991430639
0.9993430042960542
0.9994915750229416
0.9993597979176254
0.9993178696854766
0.9992801809437561
0.999286103387819
0.9992445801339438
0.9992540146802592
0.9992810426609475
0.9992433994918488
0.9999710429706515
0.9997894535137406
0.9996942302543546
0.9998374643852392
0.9997846270147052
0.9995062738424376
0.9995978747183213
0.9997391488766559
0.999558471726381
0.9996140860771443
0.9994669307188472
0.9994010263744414
0.9995556617580698
0.9994770957106731
0.9995667344146369
0.9993864779240385
0.9994950355122041
0.9993016987792166
0.9994558852988871
0.9993895925327786
0.9992404541420608
0.9992997347788914
0.999380260014629
1.000104007607846
0.9998265332289473
0.9999423672274195
0.9998590391146848
0.9999324371646344
0.9996342586688289
0.9997515921765274
0.9996551241224239
0.999771470172974
0.9997258542879252
0.9995910580851179
0.9995095165499238
0.9997063633613145
0.9996254664814709
0.9998692478473662
0.9995380676876616
0.9996760767712677
0.9994258723301148
0.99963182494252
0.9995468861929359
0.9993908081331193
0.9994148995603847
0.9994123177540144
0.9999801251010364
0.9999547461209342
0.9997909412031509
0.9998814292080944
0.9997450165068152
0.9996782620759459
0.9997223652006688
0.9995863119628372
1.000980006343415
1.001174654989625
1.00119179367881
1.000849245958912
1.00090498532585
1.000852467910863
1.000914213769256
1.000721318818644
1.000551719232547
1.000813733905194
1.000724439883272
1.000610021570106
1.000820462847957
1.000550885157658
1.00025127374654
1.000436108706217
1.000471256184963
1.000147090611175
1.000250137883146
1.000461048035038
1.000467180422949
1.001275696520268
1.001546412442323
1.001573506363026
1.000948486675833
1.001079771131568
1.001089725846892
1.000958150486682
1.000845202421234
1.000518831869904
1.000928968814835
1.000933982921357
1.000512180995514
1.000851908024475
1.000550733939379
1.000104095962586
1.000463030045135
1.000400060245628
1.000223199662131
1.000089198463685
1.000390616887872
1.000459243745745
1.001163465823257
1.000936995652173
1.001115473885985
1.000830945651813
1.000898911609746
1.000822782092212
1.000872690671764
1.001528765062534
1.001190197961629
1.001453274377089
1.000942098708972
1.001073072723615
1.000914081788699
1.001042604503722
1.001689379960054
1.002045210095009
1.002085518294594
1.001120298809035
1.001203171376939
1.001129574894961
1.001204386565477
1.000948803626935
1.000949974719278
1.000313370513308
1.000952195458628
1.000480147242655
1.000941297225763
1.000284794360949
0.9997617583117799
1.000359881348315
1.000144768964328
1.000022433888162
0.9997244034722804
1.000346746245924
1.000112433871408
1.002229819967515
1.001205379023753
1.001200156071252
1.00021064484057
1.000900274225018
1.000171607496852
1.000028978959665
0.999582516663559
0.9999861958028715
1.000714113328265
1.000551341622768
1.000809234581404
1.000710470133263
1.000590735195134
1.000789607103741
1.000547723503217
1.000350932238929
1.000271747408392
1.00025585244116
1.000368599017319
1.000471920976523
1.000361304306873
1.000472270372894
1.000840694522703
1.000522812100936
1.000925439541437
1.000820541354339
1.00090814091712
1.000537100363266
1.000551996076509
1.000232457691163
1.000150782684512
1.000113401803319
1.000464653568562
1.000405850986378
1.000427889875396
1.000469442120416
1.001095255176514
1.000873695669225
1.000965379389019
1.000792046126179
1.000861238814429
1.000788359699305
1.00084651224003
1.000469282796711
1.000780983061731
1.000672198343582
1.000479145323499
1.000546878269599
1.000716938795428
1.000593199189579
1.001421676570833
1.0010893709523
1.001312879644094
1.000901895627614
1.001029005179947
1.000978539221259
1.00093690345567
1.000899876890588
1.000541851905676
1.000866965937009
1.000552637588004
1.00055173270705
1.000777945315427
1.000622224404314
1.00016553734281
1.000272829172876
1.000211324097966
1.000435908110952
1.000457958896191
1.000471460936473
1.000474902457964
1.001273272145804
1.000958840823559
1.000895022062184
1.000554452866796
1.000764724110425
1.000608891908713
1.000226765377588
1.000463894610475
1.000475780453458
1.001555170467746
1.002018831034214
1.001905239058411
1.001113963435349
1.001084395905399
1.001201521310188
1.001187492162734
1.00094624063598
1.000932304097069
1.000954649359169
1.000330939209588