/*--------------------------------*- C++ -*----------------------------------*\
  =========                 |
  \\      /  F ield         | OpenFOAM: The Open Source CFD Toolbox
   \\    /   O peration     | Website:  https://openfoam.org
    \\  /    A nd           | Version:  7
     \\/     M anipulation  |
\*---------------------------------------------------------------------------*/
FoamFile
{
    version     2.0;
    format      ascii;
    class       volScalarField;
    location    "0";
    object      p;
}
// * * * * * * * * * * * * * * * * * * * * * * * * * * * * * * * * * * * * * //

dimensions      [0 2 -2 0 0 0 0];

internalField   nonuniform List<scalar> 
12681
(
-7.675552501035415e-05
-5.790218498169919e-05
-4.209847549080931e-05
-2.920764814949393e-05
-1.900591265928796e-05
-1.122424894388363e-05
-5.581312822325277e-06
-1.807253379831854e-06
3.40817011852187e-07
1.070564192002055e-06
5.522294927532107e-07
-7.408381207174675e-05
-5.534154516511716e-05
-3.976050132334109e-05
-2.716048082018506e-05
-1.72816253373548e-05
-9.827538504469612e-06
-4.498108329240767e-06
-1.012455464818061e-06
8.767711522149829e-07
1.37628568332272e-06
6.508965446692636e-07
-6.861127261069621e-05
-5.013419716934399e-05
-3.503639550509971e-05
-2.304818469465772e-05
-1.38368102712014e-05
-7.051564314959769e-06
-2.355877629333078e-06
5.519000903027954e-07
1.926833471682547e-06
1.972739773123839e-06
8.428294483706377e-07
-6.008209653386067e-05
-4.211429633862075e-05
-2.783785386475298e-05
-1.684295437635694e-05
-8.686207581215502e-06
-2.937065485309163e-06
7.926518083611502e-07
2.832307516153164e-06
3.445401654658513e-06
2.828917122810838e-06
1.116902463586239e-06
-4.812095212976818e-05
-3.105078405408973e-05
-1.805382536202105e-05
-8.524144393160087e-06
-1.870256464922937e-06
2.440290098008007e-06
4.857696356055808e-06
5.741239088893218e-06
5.359564065169685e-06
3.895910262012326e-06
1.455685244738639e-06
-3.225004952961115e-05
-1.667432875656504e-05
-5.580000079888844e-06
1.894464475518775e-06
6.522319764908153e-06
8.952749503717802e-06
9.700361617428222e-06
9.14932269311668e-06
7.564484234307722e-06
5.104582154974058e-06
1.834745526120514e-06
-1.192488158128312e-05
1.276918109986424e-06
9.635821311698009e-06
1.432555708517769e-05
1.632401302500792e-05
1.639861979418129e-05
1.511821611772352e-05
1.287663324053478e-05
9.918691663856342e-06
6.363414729462341e-06
2.222056288723596e-06
1.339774878997961e-05
2.298402007479664e-05
2.752824206632983e-05
2.855636460552283e-05
2.72511007106317e-05
2.447760921889445e-05
2.083058724838522e-05
1.66849728898316e-05
1.224071934763935e-05
7.557441964282818e-06
2.57781768155387e-06
4.413992860767957e-05
4.843624791984387e-05
4.782553165837528e-05
4.418503898171977e-05
3.88624037924569e-05
3.276702592288129e-05
2.646696298141617e-05
2.027386822695373e-05
1.430904072876086e-05
8.54943764940089e-06
2.855085485119412e-06
8.040585114425421e-05
7.727370528580447e-05
6.993874273020969e-05
6.055087157684577e-05
5.052094673398625e-05
4.07050134581964e-05
3.156345764114099e-05
2.328389605857792e-05
1.58676971131555e-05
9.184711530683736e-06
3.001645570423668e-06
-7.733976353305603e-05
-5.851194968827666e-05
-4.270223285866958e-05
-2.977999859322655e-05
-1.952749549215663e-05
-1.168112966099417e-05
-5.964061926555962e-06
-2.10988054465012e-06
1.219579864876861e-07
9.378261173802728e-07
5.0763567159185e-07
-7.471739065572008e-05
-5.599460267031086e-05
-4.040047489447563e-05
-2.776180613878686e-05
-1.782538328925851e-05
-1.030060672457938e-05
-4.892048884511576e-06
-1.322307372989004e-06
6.53684807820631e-07
1.241473549944014e-06
6.05707927789621e-07
-6.93469616886756e-05
-5.087595021104863e-05
-3.574983633615128e-05
-2.370770410611849e-05
-1.442464300199178e-05
-7.556441266542429e-06
-2.771522495073021e-06
2.282582238245354e-07
1.69583902311316e-06
1.834144764268082e-06
7.965812261187044e-07
-6.097952737344149e-05
-4.299419860330419e-05
-2.866383749308091e-05
-1.759011971491374e-05
-9.339235215147528e-06
-3.48805561729234e-06
3.462839712869321e-07
2.489724192766821e-06
3.20397143383779e-06
2.685593720651731e-06
1.069400215626382e-06
-4.924994564219784e-05
-3.212384735548856e-05
-1.903347807517753e-05
-9.38806973834348e-06
-2.607833976514357e-06
1.831326849079857e-06
4.374170308302933e-06
5.376915385092628e-06
5.107044727362784e-06
3.748135779307913e-06
1.407164632725625e-06
-3.369349742059686e-05
-1.800171678791409e-05
-6.75569053325988e-06
8.865257991097745e-07
5.684365949397824e-06
8.278107467239505e-06
9.177319433249551e-06
8.764013180706019e-06
7.302974129819412e-06
4.954396984576575e-06
1.786056714612726e-06
-1.378035131996297e-05
-3.709299797065477e-07
8.223041092486904e-06
1.315121072995532e-05
1.537627101278734e-05
1.565724579444529e-05
1.455938606657777e-05
1.247615910229756e-05
9.65409142845238e-06
6.215245922152089e-06
2.174872627265262e-06
1.101943620827616e-05
2.094904450507461e-05
2.584400183553512e-05
2.72032118817019e-05
2.619495110330258e-05
2.367856365903844e-05
2.024836604005661e-05
1.628204584897906e-05
1.198393166408313e-05
7.418786531902035e-06
2.534859134407814e-06
4.112269696575393e-05
4.595710495957644e-05
4.585177111511966e-05
4.265870339101747e-05
3.771620447169055e-05
3.193397810123507e-05
2.588552483218203e-05
1.989013695668926e-05
1.407723258606547e-05
8.431544445640186e-06
2.820334722930421e-06
7.665014835024453e-05
7.432273868180046e-05
6.768937689765102e-05
5.888655941787452e-05
4.932811256062458e-05
3.988161770533258e-05
3.102216186129867e-05
2.295199538475218e-05
1.568545179892293e-05
9.103152161807789e-06
2.980518970111929e-06
-7.848070231072425e-05
-5.970496243188193e-05
-4.388529303516542e-05
-3.090297920735704e-05
-2.055203713542445e-05
-1.257948610198388e-05
-6.717329584274543e-06
-2.705932443498874e-06
-3.093941913921221e-07
6.760688443462077e-07
4.196679490919393e-07
-7.595403474796977e-05
-5.72718038085888e-05
-4.165414270156804e-05
-2.894142794603479e-05
-1.889339922816498e-05
-1.123080176308164e-05
-5.667411854993608e-06
-1.932688307236217e-06
2.139010465874754e-07
9.755510189013566e-07
5.165383676334128e-07
-7.078159076047877e-05
-5.232559423204316e-05
-3.714673433654322e-05
-2.500110816400439e-05
-1.55791059191831e-05
-8.549247317762956e-06
-3.589787674759956e-06
-4.095233492484456e-07
1.24023668227788e-06
1.56059084714884e-06
7.052569835392965e-07
-6.272756667543662e-05
-4.471235429326777e-05
-3.028015713940234e-05
-1.90549648735467e-05
-1.062168362923267e-05
-4.571764960026908e-06
-5.328545374232334e-07
1.814164281556011e-06
2.727366317856779e-06
2.402402642222619e-06
9.754861385526589e-07
-5.144634247234469e-05
-3.42173345659129e-05
-2.094947886858977e-05
-1.108150220445314e-05
-4.056534062240923e-06
6.330267692148892e-07
3.421086725572065e-06
4.657678543557593e-06
4.607830183886262e-06
3.455639451848891e-06
1.311048382099081e-06
-3.649826762103954e-05
-2.058935088904936e-05
-9.054274198638038e-06
-1.089317781535155e-06
4.037715887083159e-06
6.949351877310824e-06
8.144943296541075e-06
8.001958589639884e-06
6.784789906795407e-06
4.656294287394427e-06
1.689300403151852e-06
-1.738181373206302e-05
-3.58152467830112e-06
5.460982897249448e-06
1.084800120004023e-05
1.351192842441911e-05
1.419468467494448e-05
1.345388374441745e-05
1.168176757986822e-05
9.127817027985669e-06
5.91978780507771e-06
2.08060973922549e-06
6.406725712917759e-06
1.698450208766734e-05
2.254934008511702e-05
2.454602717548774e-05
2.41132783199923e-05
2.209784301675685e-05
1.90922745176924e-05
1.547886175132502e-05
1.146995598109848e-05
7.140070765161678e-06
2.448218222711046e-06
3.527085908658921e-05
4.112314330959391e-05
4.198447621679101e-05
3.965399762465755e-05
3.544912999472369e-05
3.027812612796038e-05
2.472357819359398e-05
1.911861576911277e-05
1.360783270590288e-05
8.190802546815123e-06
2.748847509257293e-06
6.935135169893e-05
6.855265470233045e-05
6.326624208770966e-05
5.559485720255933e-05
4.695401971552192e-05
3.823102848308181e-05
2.99276483552395e-05
2.227333737281268e-05
1.530695154650934e-05
8.929819719023767e-06
2.934440896107991e-06
-8.012563637152107e-05
-6.143028358765538e-05
-4.560051717134082e-05
-3.253458753180859e-05
-2.204341284105091e-05
-1.388935035928353e-05
-7.81725713784515e-06
-3.577410464561624e-06
-9.407588074439229e-07
2.925987333119662e-07
2.907263425566208e-07
-7.77354211419578e-05
-5.911765638032294e-05
-4.347087893264908e-05
-3.065482492150035e-05
-2.044784641383613e-05
-1.258709928356896e-05
-6.799758972967121e-06
-2.825343753860888e-06
-4.300357641708301e-07
5.858040467655247e-07
3.857687332293811e-07
-7.284506990757147e-05
-5.441824245050751e-05
-3.916938200357247e-05
-2.687885248969814e-05
-1.725905476648885e-05
-9.996964768537776e-06
-4.785200902425819e-06
-1.342791276462313e-06
5.726088723520788e-07
1.159265293602063e-06
5.711789985011709e-07
-6.523714262646776e-05
-4.718909537508961e-05
-3.261826480694968e-05
-2.118050078797826e-05
-1.248769519797621e-05
-6.152521498516803e-06
-1.818080603974332e-06
8.245784583890632e-07
2.027990987875312e-06
1.986232032154522e-06
8.373418436031187e-07
-5.459328311911564e-05
-3.72307040341506e-05
-2.371858336208323e-05
-1.353785710272433e-05
-6.164844113657158e-06
-1.11613310748395e-06
2.026031088598201e-06
3.602262075632972e-06
3.873617527120973e-06
3.024611085500292e-06
1.169226501988512e-06
-4.05088863428317e-05
-2.430907131587512e-05
-1.237416480620663e-05
-3.955409435681624e-06
1.639618735366533e-06
5.007045902127455e-06
6.63063404809059e-06
6.880524524635131e-06
6.019920700216701e-06
4.215073926567385e-06
1.5458237051099e-06
-2.252221286970581e-05
-8.192195626403088e-06
1.472267729045237e-06
7.504701350635414e-06
1.079252540710054e-05
1.205145906736414e-05
1.182665168606247e-05
1.050737668298477e-05
8.346483328764311e-06
5.479353447434036e-06
1.939682942812287e-06
-1.67308761392146e-07
1.12932241946698e-05
1.77881659763116e-05
2.068200508894042e-05
2.106790412355715e-05
1.977162346041689e-05
1.738079041756311e-05
1.428251352736345e-05
1.069946664916031e-05
6.719488908157376e-06
2.316810009958578e-06
2.69369683476426e-05
3.417874748495258e-05
3.638397871397687e-05
3.526901616908962e-05
3.211519595447185e-05
2.782377131514186e-05
2.298670805244371e-05
1.79544614865017e-05
1.289184819574963e-05
7.818982293860542e-06
2.637247348421101e-06
5.894811288271587e-05
6.024083136414497e-05
5.683171571849262e-05
5.075932581045369e-05
4.343066216638293e-05
3.575361736582283e-05
2.826296332322946e-05
2.122383230219533e-05
1.470839166627634e-05
8.646955710332154e-06
2.856691086643146e-06
-9.86572719286291e-05
-9.917901533940029e-05
-9.66083148580508e-05
-0.0001001953766911467
-9.772772328104918e-05
-9.263419051959159e-05
-0.000101654662799847
-9.933330120339604e-05
-9.454528260803406e-05
-8.69976255654229e-05
-9.603330778013152e-05
-9.061296389249515e-05
-8.204756073674224e-05
-6.980662188206332e-05
-5.317572825518912e-05
-3.126734541646204e-05
-3.061412948131689e-06
3.24961919223008e-05
7.629164960033548e-05
-9.129937635281833e-05
-8.291355385780471e-05
-7.093604283990712e-05
-5.467423015143505e-05
-3.326859179668196e-05
-5.73194144831347e-06
2.895723264464762e-05
7.166815511758934e-05
-8.459526647055604e-05
-7.312598543143027e-05
-5.757516692648927e-05
-3.71364122656202e-05
-1.088501823450825e-05
2.213677093654841e-05
6.275368223680927e-05
-7.624663831634221e-05
-6.169827249068754e-05
-4.261913767609772e-05
-1.817024007358974e-05
1.251797168353636e-05
5.020307126154719e-05
-0.0001231125821854049
-0.0001207377744563458
-0.0001157799800808063
-0.0001078108264600461
-9.615890045478376e-05
-7.987931129629804e-05
-5.772298162323391e-05
-2.812077900639989e-05
-0.0001235322972424915
-0.0001212113036938649
-0.0001163673577859859
-0.0001085851725641296
-9.721458415684393e-05
-8.134204919725674e-05
-5.976238966722376e-05
-3.096550141562678e-05
6.833861598034361e-06
-0.0001243467945794301
-0.0001221296216445365
-0.0001175051515956646
-0.0001100829574673182
-9.925313845377455e-05
-8.416130225008451e-05
-6.368457012085425e-05
-3.642237597174755e-05
-7.278738547562312e-07
4.51749313026605e-05
-0.0001255088087874057
-0.0001234383448924866
-0.0001191236404543961
-0.0001122085318484665
-0.0001021384004968818
-8.813961190475731e-05
-6.920071314288315e-05
-4.406750188936425e-05
-1.127391916609488e-05
3.075403974406677e-05
-0.0001495873384557754
-0.0001476870375818772
-0.0001436584140393404
-0.0001370246392534751
-0.0001270178706674816
-0.0001125150536991626
-9.195298235992546e-05
-6.322913270686516e-05
-2.360586059095614e-05
1.078814142796769e-05
3.034583234094276e-05
6.102824052011842e-05
-0.0001778514330866854
-0.0001498663888849232
-0.0001480161008584498
-0.0001440946731656469
-0.0001376406629286311
-0.0001279120501907343
-0.0001138257110356929
-9.387807383731122e-05
-6.605441140396491e-05
-2.774686973394468e-05
2.4274377425093e-05
5.557262820324571e-05
-0.0001780387761261707
-0.0001504037069072034
-0.000176975698242202
-0.0001486495867800098
-0.0001449340977968236
-0.0001388249327939818
-0.0001296288119222673
-0.0001163375756243893
-9.75585730358718e-05
-7.143751225905683e-05
-3.559513630920253e-05
1.287362029237638e-05
-0.0001782855124712943
-0.0001511601861031847
-0.0001773318876979615
-0.0001495412141674324
-0.0001752417916268834
-0.0001461147229307942
-0.0001404883525531865
-0.000132035338849146
-0.0001198491022327833
-0.0001026856396188527
-7.89015340857878e-05
-4.64061998425348e-05
-2.667248053944023e-06
-0.0002353092099557216
-0.000206703134846067
-0.0001777504853642556
-0.0002362056148199244
-0.0002064684021293339
-0.0001765678755265161
-0.0002378807919201424
-0.0002058113697890209
-0.000173979163535466
-0.0002400700756681208
-0.0002043250032880834
-0.0001695091134175394
-0.0002422960484263675
-0.0002013135475085481
-0.0001623711873195594
-0.0002437510146084873
-0.0001956743354133369
-0.0001513707424956562
-0.0002431000962319936
-0.0001857117948231924
-0.0001347628614577057
-0.0002381597630676194
-0.0001688567409241122
-0.000110056504411436
-0.000225382202032189
-0.0001412583254022196
-7.376061669604473e-05
-0.0001990464574891062
-9.722520546832021e-05
-2.107521219401189e-05
-0.000150023261939596
-2.856888910493061e-05
5.449020272133711e-05
-0.0002349733216820646
-0.0002065953287825112
-0.0002358768828793344
-0.0002063871594660608
-0.0001767098464877039
-0.0002375711328126233
-0.0002057899210636325
-0.0001742105978294736
-0.0002398023607750586
-0.0002044114678951539
-0.0001698946725204545
-0.0002421136179324746
-0.000201582659766245
-0.0001630036067897077
-0.0002437334515602571
-0.0001962455207081477
-0.0001523880005073227
-0.0002433902510778798
-0.0001867780726452255
-0.0001363740509481306
-0.0002390109045579829
-0.0001707316451319436
-0.0001125819895322169
-0.0002272417051527443
-0.0001444517405579426
-7.769755362923589e-05
-0.000202706210999775
-0.0001025586297172287
-2.721887738538436e-05
-0.0001568747442576356
-3.729534403609842e-05
4.475069016574343e-05
-0.0002343048403100795
-0.0002063733327108548
-0.0002352211036853765
-0.0002062155026445928
-0.000236949681203078
-0.0002057315131732382
-0.00017464749807264
-0.0002392573712610073
-0.0002045572381872683
-0.0001706257881760064
-0.0002417254711700431
-0.000202073469807176
-0.0001642049287619667
-0.0002436500846796574
-0.0001973057065231828
-0.0001543201839240844
-0.0002438771952922889
-0.0001887685895436823
-0.0001394296262272774
-0.0002405382389131801
-0.0001742353317549955
-0.0001173563530188063
-0.0002306381201166521
-0.0001504097752302964
-8.509705441783131e-05
-0.0002094415493845788
-0.0001124837354178313
-3.863342038349918e-05
-0.0001695982336614786
-5.358204482987534e-05
2.711699864073442e-05
-0.0002333110976443399
-0.0002060259007172853
-0.0002342427157910452
-0.0002059370753265882
-0.0002360140156476847
-0.0002056081940877481
-0.0002384193424599752
-0.000204713130769264
-0.0001716286174945544
-0.0002410911817529266
-0.0002027000669607995
-0.0001658584257836779
-0.0002434156351486482
-0.0001987063964435745
-0.0001569805471950384
-0.0002443944031281958
-0.0001914282082459131
-0.0001436287454916028
-0.0002424273181288476
-0.0001789295362126169
-0.0001238912357957424
-0.000234981275286775
-0.0001583741224954262
-9.515470790108889e-05
-0.0002181112305573066
-0.0001256581241828755
-5.394249354519491e-05
-0.0001857944123670418
-7.487433919587637e-05
4.213048346550801e-06
0.0001082899201789077
9.560108504544113e-05
8.88601116503939e-05
7.837818713287747e-05
6.640270887495913e-05
0.0001113705971917195
9.52886047019549e-05
8.346277696996018e-05
9.37513930252041e-05
0.0001170363852795665
7.723633273346278e-05
0.0001029173033212063
5.515638456258855e-05
-0.0003055052792247841
-0.0002861072348926775
-0.0002622481630042626
-0.0003099231749091865
-0.0002894526670763474
-0.000264375927544664
-0.0003189762503796117
-0.000296243543095267
-0.0002686136442306519
-0.000333115721198471
-0.0003066767643709484
-0.0002749061458232302
-0.0003530610459178928
-0.0003210361020670743
-0.0002831152916728628
-0.0003798535819685082
-0.0003396656605350804
-0.0002929329132041427
-0.0004149311211680247
-0.0003629058101717076
-0.0003037227344067268
-0.0004602240874343857
-0.0003909455188687957
-0.0003142372915343559
-0.0005182797207891009
-0.0004234827044947093
-0.000322115377214811
-0.000592481129881776
-0.0004589002098256885
-0.0003230126341349016
-0.0006878269580361753
-0.0004919961795516679
-0.0003092418378677581
-0.0003045376074297144
-0.0002853223390634303
-0.0002616803941009314
-0.0003088939003100725
-0.0002886281261530338
-0.0002637924444718385
-0.000317818005053597
-0.000295337758755649
-0.0002680004987110411
-0.0003317488704855022
-0.0003056444129744718
-0.0002742538842982355
-0.0003513856009691634
-0.0003198268781460605
-0.0002824239838916715
-0.0003777384264123221
-0.0003382241822043915
-0.0002922217008644761
-0.0004121990551336137
-0.0003611736147613657
-0.0003030478462433079
-0.0004566311444004504
-0.0003888649231048503
-0.0003137259111299372
-0.0005134919403872008
-0.00042099257991975
-0.0003220315328422402
-0.0005860864912674316
-0.0004558682577234188
-0.0003239057760939016
-0.0006795510569659542
-0.0004879292371023226
-0.000312396309139113
-0.0003026353000941608
-0.0002837765896516279
-0.0002605586171887786
-0.0003068715655579185
-0.0002870046695784968
-0.0002626391446893957
-0.0003155445432773938
-0.0002935550527385558
-0.0002667873799301223
-0.0003290696540427569
-0.0003036135902112828
-0.0002729609003367075
-0.0003481070422877715
-0.0003174492728428835
-0.0002810486699443821
-0.0003736074650649558
-0.0003353912774944339
-0.0002907970438481127
-0.000406874308131333
-0.0003577717902929439
-0.0003016763569289112
-0.0004496401612181082
-0.0003847856586116195
-0.000312644329269706
-0.0005041722622129003
-0.0004161197180413806
-0.0003217362735705886
-0.00057362928253374
-0.0004497637255065177
-0.0003254316102531495
-0.0006647510574037549
-0.0004768982508658207
-0.0003183107417120753
-0.0002998624333834363
-0.0002815169429177309
-0.0002589101789641618
-0.000303926297925508
-0.0002846323301540169
-0.0002609433198485526
-0.000312238945962084
-0.0002909517507992168
-0.0002650009237506776
-0.0003251828764493282
-0.0003006503697784818
-0.0002710512386669452
-0.0003433639356409281
-0.0003139828542588769
-0.0002790061826268689
-0.0003676504289777364
-0.0003312643923643831
-0.0002886589188931977
-0.0003992231834312886
-0.0003528240615051199
-0.0002995731352097331
-0.0004396219176743892
-0.0003788956331101964
-0.0003108921944345854
-0.0004907141168050649
-0.0004093671087860461
-0.0003210271583080343
-0.0005541728795468743
-0.0004432390837678203
-0.0003272372059824775
-0.0006277763363054776
-0.0004779248313259485
-0.0003255603129274358
0.0001664220466829891
0.0001406766145208732
0.0001149572863262095
9.121306830006991e-05
7.034438073804747e-05
5.260855064228702e-05
3.790241977083005e-05
2.593995396594074e-05
1.635355027883829e-05
8.743301525779647e-06
2.690546698651298e-06
0.0001612646632615837
0.0001370112953625579
0.0001124498977744675
8.95746856536354e-05
6.93364182014317e-05
5.20430467124671e-05
3.763518428276471e-05
2.586086433109238e-05
1.637690337136136e-05
8.799410230716111e-06
2.718841091832394e-06
0.0001509253089968783
0.0001296658228995406
0.0001074042829191326
8.624664449172246e-05
6.72565135374175e-05
5.084472784535529e-05
3.703729893432042e-05
2.564800476129343e-05
1.638097189848308e-05
8.883810336809657e-06
2.765570177124366e-06
0.0001359532622424022
0.0001188710869844773
9.987326563146321e-05
8.118484098250304e-05
6.40130136100818e-05
4.8904714921583e-05
3.600108512334739e-05
2.520614511015224e-05
1.629035491869572e-05
8.946834663542692e-06
2.81304292680148e-06
0.0001216815815783188
0.0001085837952112843
9.283968454381157e-05
7.667168142331645e-05
6.137041242569603e-05
4.759003500651669e-05
3.557383744444543e-05
2.531157600804476e-05
1.664016128531868e-05
9.300844572586489e-06
2.963546267789383e-06
0.0001171546587860471
0.0001051975831029953
9.038386523698614e-05
7.49493392685051e-05
6.02089444691918e-05
4.684563339951574e-05
3.513043194634733e-05
2.507678400640417e-05
1.654024335028805e-05
9.275809594518707e-06
2.962965256426628e-06
8.551863122043163e-05
7.151247526392277e-05
5.787012539162425e-05
4.532860237904365e-05
3.421113314975352e-05
2.457600726516572e-05
1.631442752111582e-05
9.208069631345808e-06
2.955405022505772e-06
4.299735165900217e-05
3.27627801547848e-05
2.375598109001925e-05
1.591733417625121e-05
9.06634805330997e-06
2.929465930412231e-06
0.0001286644615634836
0.0001887366822570354
0.0001816720359886352
0.0001675355772929685
0.000147453308217901
0.0001244494879341917
0.0001979622808336769
0.0002019152160043773
0.000184543192281288
0.0001922431480219589
0.0001606131028914512
0.0001734696099834956
0.0001298069102483589
0.0001477171356670665
-6.385308101677406e-05
7.569376547083263e-05
0.0001618736361859039
-7.612228275174244e-05
6.215899009909783e-05
0.0001455057930757547
-9.945016223822508e-05
3.582475153359688e-05
0.0001176771011251762
-0.000128703921459413
2.836888218236905e-06
8.484205482158949e-05
-0.0009121864944814615
-0.0006001603703824921
-0.0002685744793469468
-0.0009044259171251543
-0.0005964714090701407
-0.0002776092694657225
9.852878243784455e-05
5.434109997782263e-05
0.0001227845553969313
0.0001027034859341999
-0.0008774844052217604
-0.0005870246392562993
-0.0002989703629355706
-0.0008309723626990093
-0.0005142588372024703
-0.0003136951251376413
-0.001001451408897864
-0.0009434454375020422
-0.001041182084664858
-0.001029888804249665
0.0002110309409673312
0.0001705407184614316
0.0001339099148696258
0.0001023855472472416
7.615749731610626e-05
5.487488952377058e-05
3.796437782888887e-05
2.480190430150275e-05
1.479367896528851e-05
7.403890095609781e-06
2.150251851537634e-06
0.000205755680726329
0.0001669422095521885
0.0001316200884290081
0.0001010464182765023
7.547194287332946e-05
5.461701680372549e-05
3.796855525941178e-05
2.494652416594433e-05
1.498607024225131e-05
7.567914809112546e-06
2.216344191129581e-06
0.0001944255671862226
0.0001594221622263704
0.0001268523605217329
9.821446254131773e-05
7.39611983768831e-05
5.397633056176467e-05
3.787003567645248e-05
2.514928597887172e-05
1.530629364556407e-05
7.855054445019745e-06
2.334249229052594e-06
0.0001775820809051803
0.0001480749641990207
0.0001195002848230363
9.369851719169511e-05
7.140960307622151e-05
5.274458509627619e-05
3.748449046464393e-05
2.525816410981031e-05
1.563946853865917e-05
8.191934581074632e-06
2.478250195741138e-06
0.0002525003238905299
0.0002451677705049953
0.0002286156646283716
0.0002044247990443396
0.0003187296917453919
0.00029007063482381
0.0002982422572033685
0.0002792711245826242
0.0002637404939483798
0.0002553497600834873
0.0002216631142571454
0.0002220592986551988
8.891266260806781e-05
0.0002284144349095468
0.0003140134955778765
6.765965230207666e-05
0.0002117389429368402
0.0002815605367494291
3.23142555459411e-05
0.0001703368982689392
0.0002338657149585268
-2.73390667204775e-05
0.000122356611321743
0.0001933794207102793
-0.001001373514853963
-0.0006837389949463039
-3.217792968608488e-05
-0.001000412613799054
-0.0006755900496055483
-0.0009961224588798177
-0.0004605044461629277
-6.730628569762008e-05
-0.001130969998801088
-0.000642281577275731
-0.0001027249126660595
-0.0001593288904437928
-0.0011216411849439
-0.0006958059382153913
-0.001235082906204469
-0.00116870220516359
-0.00122517156261565
-0.001076355169441628
-0.001147054508099231
-0.001001926274152371
-0.0008249689477891631
-0.0008195192556560814
-0.001180082981954984
-0.00118350961603065
-0.0009359712483270981
-0.0009369971663731635
-0.0008151871478567316
-0.0009803536062986959
-0.0007951284484073506
-0.00117054354627527
-0.001154245652319289
-0.0009342672140615142
-0.0009238227730972574
-0.001235616699949485
-0.0009534554474128086
-0.0009807768566036735
-0.000442901283709275
-0.0007159287741670061
-0.0004781673311521194
-0.001359349363744111
-0.0009851871958744686
-0.001290594022722383
-0.001296467040368784
-0.001143176504730743
-0.001279603505314965
-0.001261023347337713
0.0002510859973323596
0.000194966642362664
0.000147420630648807
0.0001086494135305221
7.782132061138436e-05
5.378933189410589e-05
3.542008740669073e-05
2.172269829082165e-05
1.188322100572503e-05
5.256452578979806e-06
1.337735839289599e-06
0.0002821234423646464
0.0002107310170474024
0.0001532737131782747
0.0001085850938692048
7.448243194821219e-05
4.887146749155429e-05
3.002091179807822e-05
1.658930626680733e-05
7.581755524303352e-06
2.293049119528799e-06
2.532889579063945e-07
0.0003025024374032097
0.0002148358495050668
0.0001494567467938425
0.0001011128669984732
6.566922525943284e-05
3.999761766178294e-05
2.182113222518553e-05
9.529122404114844e-06
2.025102522561504e-06
-1.384020674721712e-06
-1.064568968876762e-06
0.0002467318416643401
0.0001919792235650188
0.000145725538698959
0.0001078904390378659
7.766582597810973e-05
5.39891722192819e-05
3.580160158648558e-05
2.216364226986612e-05
1.229191054494602e-05
5.555361665647643e-06
1.450492385933382e-06
0.0002799670878263793
0.0002089858732135197
0.0001526365390343354
0.000108751661682826
7.510462609162659e-05
4.970110316601445e-05
3.089660914169047e-05
1.740395798241549e-05
8.255685343907062e-06
2.754185781404824e-06
4.215963194257753e-07
0.0003001293489070466
0.0002144901546886682
0.0001503309575117425
0.0001025793886779968
6.733078136046691e-05
4.163022799187349e-05
2.330268520451125e-05
1.078789161688801e-05
3.006895187440763e-06
-7.376610986955748e-07
-8.333869746392711e-07
0.0002353322093248662
0.0001850762777411079
0.0001418879351389419
0.0001060646408179343
7.710711039567684e-05
5.418487461774077e-05
3.640025062726886e-05
2.29182472670785e-05
1.301727792081109e-05
6.096157241563048e-06
1.656336203876107e-06
0.0002696411145588494
0.0002037479829005102
0.0001505849098469061
0.0001085743775706628
7.595767576072929e-05
5.105305088330468e-05
3.241035286850373e-05
1.885532206624275e-05
9.478194569229304e-06
3.600179465386001e-06
7.321549804573171e-07
0.0002914501076903528
0.0002120831732059152
0.0001510752445104517
0.000104776367725104
7.008564911240294e-05
4.446036408913628e-05
2.59393833292646e-05
1.306756552656434e-05
4.806493197198301e-06
4.567928709173077e-07
-4.043130852856868e-07
0.0002175298494925724
0.0001741440637100401
0.0001355495881024806
0.000102757857888759
7.575063658385893e-05
0.0002524656148521186
0.0001947073926936332
0.0001464100403068644
0.0001073238974221796
0.0002781872947738744
0.0002071390745478048
0.0001505162031185273
0.0001065528638488232
0.0003133052387904722
0.0003632967478339969
0.0004205267608917628
0.0003087009701064205
0.0003674164953544545
0.0004146815499577118
0.0002908151484958727
0.0003495617220748939
0.000397584072655643
0.000262767339579972
0.0003178768232315228
0.0003614501277067781
0.0004665034948585763
0.000377284371387178
0.0006495670271543412
0.0004850086661614409
0.0004363029444669109
0.0003739853639200761
0.000598702248847447
0.0004746012637718264
0.0003894581507687582
0.0003456585310928573
0.0005401601863479911
0.0004412225851499686
0.0003263737107438758
0.0003029649119120475
0.0004708498881351778
0.0003851254417273235
0.0007642306103612926
0.0005803147461171237
0.0007598234422709625
0.0005689179852399368
0.0007046200313144522
0.0005442378236725214
0.0006249407376053145
0.0004815255201156847
0.0001953246468460278
0.0003198514629477691
0.0004819836788433912
0.000420383939790786
0.0008778126187483722
0.0005911678148961294
0.0001680659717987499
0.000336725183092817
0.0004718058309202865
0.0003476871472377664
0.0008011647651772344
0.0006126332948154542
0.0001116641160229789
0.0003027533738919108
0.0004100052905967056
0.000315140691849188
0.0007730127091973258
0.0005778556475867158
0.0003398549878179451
0.0009185523454903721
0.0009920207930012345
0.0008568752813885287
0.001656080056324757
0.001496140684574466
0.001031468888851774
0.0007758647171081032
0.0008856349509907979
0.0008356263205264551
0.001415817419703724
0.001467945843145892
0.00101971287080083
0.0007280468555909147
0.0008480046828895605
0.0007485245369935047
0.001336258272243411
0.00129319869040033
0.0009590381607529642
0.0005124053555619305
0.0007157710485884036
0.0009784871025744857
0.001046169788819835
-0.001237109520532441
-0.0004496166690993505
5.652985267192475e-05
-0.001490575830563638
-0.0001148525697178791
0.0003513906035738264
-0.00122661906941483
-0.001483413648012391
-0.001754250382291471
0.0003406872272601289
0.0008556832903668804
-0.00185318101033573
0.000348512945508986
0.001648688968205476
-0.0004664604774159691
-7.062616758626068e-06
-0.0001278866528246465
0.0002707838810262808
-0.001184066580278384
-0.0007083379795506056
-2.739207523170519e-05
-0.001435735778119476
-0.0006832763019443074
0.0002407600794986169
-0.001358636458785098
-0.0006808805458987912
0.000114467440094171
-0.001750066367948223
0.0003103150055706295
0.0007054763669194099
-0.001870134476228651
0.0002844764282344427
0.001384489203969061
-0.001712781232455268
-0.0005255461800669412
0.0006557778090078013
-0.00192826169619402
-5.518588690495788e-05
0.001297956635355584
-0.001630963171022179
-0.000651674626987205
0.0004337287648950621
-0.001906788944223252
-0.0004032944119852778
0.0009146795800144646
-0.00130078324106083