/*--------------------------------*- C++ -*----------------------------------*\
  =========                 |
  \\      /  F ield         | OpenFOAM: The Open Source CFD Toolbox
   \\    /   O peration     | Website:  https://openfoam.org
    \\  /    A nd           | Version:  7
     \\/     M anipulation  |
\*---------------------------------------------------------------------------*/
FoamFile
{
    version     2.0;
    format      ascii;
    class       surfaceScalarField;
    location    "0";
    object      phi;
}
// * * * * * * * * * * * * * * * * * * * * * * * * * * * * * * * * * * * * * //

dimensions      [0 3 -1 0 0 0 0];

internalField   nonuniform List<scalar> 
36829
(
1.841436850675084
2.898278635043993e-05
-7.391236332821001e-06
-1.841458442225115
1.841417137289605
2.671610251755538e-05
-7.002716575499313e-06
1.841399489296133
2.414684088930354e-05
-6.498847442149342e-06
1.841384004593639
2.138613920088517e-05
-5.901437088340344e-06
1.841370713597851
1.852110375864047e-05
-5.230108721487352e-06
1.841359600111169
1.561536226850868e-05
-4.50187666776211e-06
1.841350619925579
1.271121899208803e-05
-3.731034735255137e-06
1.841343716496816
9.832711068637961e-06
-2.929283774788186e-06
1.841338833471796
6.989055414662121e-06
-2.106031827020847e-06
1.841335924123979
4.178158397630574e-06
-1.268811788345666e-06
1.39001986986287e-06
-4.237743490127876e-07
1.84143458399129
5.878661110013701e-05
-7.776425211702899e-06
-1.841456611390505
1.841414568027954
5.407925354867583e-05
-7.34718745931663e-06
1.841396728594464
4.878733221968003e-05
-6.80105838997172e-06
1.841381139558219
4.313670962051745e-05
-6.161535343141389e-06
1.841367807856392
3.730218257793548e-05
-5.44937875564707e-06
1.841356695967852
3.14095072093251e-05
-4.682258639803058e-06
1.841347741417692
2.554049620802891e-05
-3.874729555609146e-06
1.841340872841138
1.973973081864425e-05
-3.038445675507298e-06
1.841336022574798
1.402186002021821e-05
-2.182540423812173e-06
1.841333135985441
8.378858128697412e-06
-1.314111907158375e-06
2.786938352227416e-06
-4.387716683318337e-07
1.841429876633693
9.024231990540889e-05
-8.56969559974705e-06
-1.841452762646586
1.841409276106663
8.273397626368251e-05
-8.054195395201656e-06
1.84139107797186
7.440484409258004e-05
-7.419377462625371e-06
1.84137530503115
6.56018170563718e-05
-6.692167707100529e-06
1.841361915181006
5.658760541216168e-05
-5.895574192822837e-06
1.841350826956836
4.754623462368461e-05
-5.048505190356548e-06
1.841341940652297
3.859273929272076e-05
-4.165940739175542e-06
1.841335154970364
2.978474906267792e-05
-3.259338514771267e-06
1.841330379572916
2.113443719227352e-05
-2.337181662691943e-06
1.841327544065682
1.261996778276855e-05
-1.405603811254952e-06
4.196092043363497e-06
-4.690499227910735e-07
1.841422368290054
0.0001241966618614754
-9.818223468015856e-06
-1.841446504408214
1.841400946974481
0.0001133159627959246
-9.160670561669565e-06
1.841382274944825
0.0001014588607737503
-8.381987335060548e-06
1.841366290819504
8.910027375134013e-05
-7.514332257630507e-06
1.841352873810218
7.658859362316055e-05
-6.583980343277219e-06
1.841341873461504
6.415806267903081e-05
-5.611481182433565e-06
1.841333132662062
5.194572319133783e-05
-4.612186562447107e-06
1.841326504658478
4.000973277396014e-05
-3.596982255028004e-06
1.841321865103492
2.834710054291274e-05
-2.573110231286186e-06
1.841319120189928
1.690989177442848e-05
-1.545011777626079e-06
5.619660368240441e-06
-5.151561803806953e-07
1.841411487591021
0.0001615100686816026
-1.159625692181976e-05
-1.841437204740522
1.841389089872459
0.000146437636141105
-1.072395430767901e-05
1.841369916357802
0.0001303644402383952
-9.73206505707705e-06
1.841353779139402
0.0001138972670027272
-8.659775663533688e-06
1.841340443279295
9.74618581257367e-05
-7.53740573702355e-06
1.841329661122034
8.132740844104444e-05
-6.387190276102925e-06
1.841321196671665
6.563457343489176e-05
-5.224401912729226e-06
1.841314842026266
5.042296730060165e-05
-4.058591177179762e-06
1.841310427894743
3.565604235689079e-05
-2.89481209288053e-06
1.841307829958549
2.124259461531261e-05
-1.734767943206337e-06
7.055020602651213e-06
-5.77858686879213e-07
1.841396415158464
0.0002030396382459505
-1.400927956041231e-05
-1.841423935448056
1.84137301667654
0.0001826600878458643
-1.28239692394065e-05
1.841353449184554
0.0001614605892421359
-1.152865718903023e-05
1.841337343730507
0.0001401738170105915
-1.01710967168597e-05
1.841324308829591
0.0001192826369891264
-8.78587923658332e-06
1.841313968287007
9.906425339161005e-05
-7.396304090835079e-06
1.841305985065512
7.963423842347704e-05
-6.016445476797885e-06
1.841300075101303
6.098607170248361e-05
-4.653142192312681e-06
1.841296014446982
4.30244724323393e-05
-3.307777498129383e-06
1.841293642384517
2.559246647009036e-05
-1.977810631403334e-06
8.493068255967894e-06
-6.580788952876741e-07
1.841376035608075
0.0002495978328482806
-1.71994118469907e-05
-1.841405394390325
1.841351817177934
0.0002224442609764382
-1.556574234027408e-05
1.841332162412327
0.0001949627911375309
-1.384743636201379e-05
1.841316452550497
0.0001679852007717957
-1.21015226106628e-05
1.841304090446005
0.0001420107042222406
-1.036596396097941e-05
1.841294538272056
0.0001172797579295701
-8.663332231416657e-06
1.841287336898808
9.383991705249513e-05
-7.004307268899935e-06
1.841282113502039
7.160018075925649e-05
-5.390714186148671e-06
1.841278582441034
5.037354715596907e-05
-3.818015375100584e-06
1.841276542986317
2.99092101720543e-05
-2.277290157291759e-06
9.916568521228797e-06
-7.567931838764098e-07
1.841348882036161
0.0003018731823940203
-2.135163809187088e-05
-1.841379805747081
1.84132433570813
0.0002660723457967011
-1.908175603864008e-05
1.841305184821994
0.0002308945359299486
-1.678085867951092e-05
1.841290478053917
0.0001972059481113084
-1.451397986405078e-05
1.841279359499689
0.0001654486756115554
-1.231941830655136e-05
1.841271098431159
0.0001357560793639917
-1.021525448838872e-05
1.841265097162497
0.0001080460896283225
-8.204905742381886e-06
1.841260886868456
8.209200698860997e-05
-6.281534025110945e-06
1.841258118104019
5.757368435916563e-05
-4.431374349377661e-06
1.841256550344642
3.411313399361736e-05
-2.636165561086671e-06
1.129867046711919e-05
-8.748994233531704e-07
1.841313081199605
0.0003602941492875206
-2.669989299164479e-05
-1.841344802272896
1.841289157898228
0.0003135288271933979
-2.353317909151763e-05
1.84127149623415
0.0002689931596937322
-2.04369595611098e-05
1.841258720781424
0.000227460314367246
-1.747891399794758e-05
1.841249666903483
0.0001891933976416738
-1.469084512808374e-05
1.841243388441434
0.0001541139361047816
-1.207939617868619e-05
1.841239143079845
0.000121925799594823
-9.634350103747642e-06
1.8412363685458
9.220120324826553e-05
-7.33466393638832e-06
1.841234657553693
6.44373142333133e-05
-5.152639249627276e-06
1.84123373588114
3.809148485964927e-05
-3.056679349010378e-06
1.260179538484903e-05
-1.013044966379758e-06
1.841266315877494
-3.353105856618299e-05
-1.841297303282111
0.0004248126131581081
1.841244622230731
-2.91083874124362e-05
0.0003643308625278507
1.841229963388823
-2.493565370187481e-05
0.0003085876555086742
1.8412204538647
-2.107012350016646e-05
0.0002580399615960075
1.841214587441947
-1.752389225297953e-05
0.0002125837117011812
1.841211200304929
-1.428030828418796e-05
0.0001717813799925886
1.841209418483503
-1.130555066897188e-05
0.0001350131700707975
1.841208604656786
-8.55628063054569e-06
0.0001015713089369541
1.841208311724308
-5.98438671888098e-06
7.071463202552838e-05
1.841208246191653
-3.539707190469699e-06
4.169672371463736e-05
-1.171416135293394e-06
1.377719279360701e-05
1.841437267441812
2.856959265894496e-05
-1.451788774361853e-05
-1.841458710382756
1.841417677792073
2.634658720879202e-05
-1.375965381337579e-05
1.841400130140658
2.382265796498848e-05
-1.277385453692919e-05
1.841384724730316
2.1107130739683e-05
-1.160315864502777e-05
1.841371494775347
1.828589189713991e-05
-1.028604739753787e-05
1.841360426996449
1.542186579616172e-05
-8.855965779804141e-06
1.841351479967106
1.255707696249259e-05
-7.34108482533281e-06
1.841344599602532
9.7156126592779e-06
-5.764534332837899e-06
1.841339731561148
6.906984323151735e-06
-4.144976929524379e-06
1.841336830599082
4.129564783038837e-06
-2.497416047445911e-06
1.373932184192129e-06
-8.341548182996533e-07
1.841435044436381
5.793566671115201e-05
-1.526780105297982e-05
-1.841456919133979
1.841415153862837
5.33208432420982e-05
-1.443086985967539e-05
1.841397414613443
4.812405882520702e-05
-1.3363210702577e-05
1.841381903491497
4.25674981198954e-05
-1.211078243599947e-05
1.841368630749274
3.68235469139222e-05
-1.07142939431552e-05
1.841357562207605
3.101663304277104e-05
-9.208487154265956e-06
1.841348638502821
2.5228112779951e-05
-7.622063803491215e-06
1.84134179097421
1.950277816131777e-05
-5.978085658068913e-06
1.841336954141619
1.385597573118248e-05
-4.294701836234582e-06
1.841334074966503
8.28071438974122e-06
-2.586088118362537e-06
2.754458745112479e-06
-8.635146621890401e-07
1.841430429612863
8.890301896258278e-05
-1.681138947162721e-05
-1.841453155270635
1.841409957078453
8.154705584353315e-05
-1.580787335434193e-05
1.841391858052734
7.337224855377061e-05
-1.45685421504281e-05
1.841376159540264
6.471987778766675e-05
-1.314603632927751e-05
1.841362823835382
5.584914932477147e-05
-1.158547382888273e-05
1.841351773687324
4.694232797903566e-05
-9.924054697752616e-06
1.841342913168204
3.811404957509979e-05
-8.191361327769939e-06
1.841336144171774
2.942255724484966e-05
-6.410124008941822e-06
1.841331378880272
2.088135565441004e-05
-4.597272464668914e-06
1.841328548710853
1.247042428786927e-05
-2.765145881289036e-06
4.14663367263127e-06
-9.227794061313539e-07
1.841423073649743
0.0001222893581172002
-1.923872943206629e-05
-1.841447039482226
1.841401782271156
0.000111639021941302
-1.796125776363226e-05
1.841383205681975
0.0001000106268846194
-1.644377707329705e-05
1.841367288811801
8.787155194285061e-05
-1.474913756977298e-05
1.841353917014036
7.556585030912194e-05
-1.292888558862895e-05
1.841342945408918
6.332595636891013e-05
-1.102350700068472e-05
1.841334221675866
5.128899728525836e-05
-9.063404033963966e-06
1.841327602970176
3.951456299893516e-05
-7.070285078721133e-06
1.841322967948899
2.800200964305684e-05
-5.058745252590784e-06
1.84132022492023
1.670633956154428e-05
-3.037899923190271e-06
5.552399126320328e-06
-1.012999460049056e-06
1.841412423313596
0.0001589216094462051
-2.26913095903464e-05
-1.841437960511517
1.841390153876105
0.0001441849415484634
-2.10004360314967e-05
1.841371066607001
0.0001284372285219604
-1.907139811187382e-05
1.841354983110202
0.0001122760667375608
-1.698079489583405e-05
1.841341677120113
9.612261550806522e-05
-1.478818279328677e-05
1.841330908449857
8.024492793225945e-05
-1.253749404561723e-05
1.841322447241599
6.478494507078381e-05
-1.025914416336357e-05
1.841316090416839
4.978518999902791e-05
-7.972396071044157e-06
1.841311672278837
3.521305268168377e-05
-5.687719348967391e-06
1.84130907097983
2.098188173158641e-05
-3.409012574895297e-06
6.968968057630143e-06
-1.135647508039179e-06
1.841397686645678
0.0001996175703229515
-2.736958830426319e-05
-1.841425022296967
1.841374406163064
0.0001797189766526303
-2.507752124714063e-05
1.841354905445213
0.0001589732253588494
-2.256393661679309e-05
1.84133882965895
0.0001381030412765938
-1.992228616581567e-05
1.84132579943252
0.0001175876736549952
-1.722071281011026e-05
1.841315448466974
9.77051071324518e-05
-1.450552013658284e-05
1.841307447486508
7.857455504691649e-05
-1.18050776343781e-05
1.841301518279503
6.01948752141368e-05
-9.133622963996397e-06
1.841297441107866
4.247713817839838e-05
-6.494693496946802e-06
1.841295058066137
2.527121356044048e-05
-3.884102136839133e-06
8.387177035662496e-06
-1.292485291533764e-06
1.841377788052021
0.0002451437228047764
-3.354268437109539e-05
-1.841406970931025
1.84135366041177
0.0002186726187311869
-3.039174355126005e-05
1.841334035261132
0.0001918160970446827
-2.706515773647998e-05
1.841318314291335
0.0001653973480359685
-2.36748606567975e-05
1.841305916866013
0.0001399152257637208
-2.029609250146253e-05
1.841296317914901
0.0001156150045886761
-1.697428084786663e-05
1.841289067806692
9.255203016862651e-05
-1.373167669494564e-05
1.841283800542474
7.064459468236486e-05
-1.057317186379927e-05
1.841280235183256
4.971559448609832e-05
-7.491114475267021e-06
1.841278174029626
2.952424305454773e-05
-4.469167330878255e-06
9.789875475930641e-06
-1.485371469489588e-06
1.8413513169479
0.000296136087533295
-4.155932937623941e-05
-1.841382101620272
1.841326803890119
0.000261297286125096
-3.719336489848519e-05
1.841307616512152
0.00022697262159177
-3.275000547138997e-05
1.841292832169062
0.0001940254511632573
-2.835774089859879e-05
1.841281616644805
0.0001629048363811185
-2.409350633518686e-05
1.841273254940466
0.000133756406964262
-1.999495470452709e-05
1.841267160371188
0.0001065127188281694
-1.607102754414277e-05
1.841262871542292
8.096231023468901e-05
-1.231042301177343e-05
1.841260043831822
5.679998055769463e-05
-8.688051862070933e-06
1.841258439662015
3.366204713639576e-05
-5.169801066055477e-06
1.115048117936835e-05
-1.716001535882798e-06
1.841316478146528
0.0003529663300934178
-5.185814186248174e-05
-1.841348150138987
1.841292479225553
0.0003075482784709038
-4.578524947263014e-05
1.841274669341699
0.0002641673921286236
-3.982184630536919e-05
1.841261711554283
0.0002236080092772108
-3.41036855271426e-05
1.841252468215426
0.0001861543764274387
-2.869704783584389e-05
1.841246011252339
0.0001517530087068184
-2.361903686396519e-05
1.841241609962581
0.0001201330959266853
-1.885343969907383e-05
1.841238709212587
9.089077003519138e-05
-1.436237592704473e-05
1.841236905898432
6.354509532698019e-05
-1.009444161207789e-05
1.841235928096083
3.757333892286822e-05
-5.99016992156959e-06
1.243190998558734e-05
-1.985573774636432e-06
1.841271060094893
-6.497340303401219e-05
-1.841302182623792
0.000415531204880571
1.841249098339215
-5.651903471713002e-05
0.000356920682607932
1.841234109958856
-4.850485518455199e-05
0.0003027249740489239
1.841224257921432
-4.105072743421075e-05
0.000253440649910598
1.841218066847707
-3.418828531107705e-05
0.0002090098417843068
1.841214391339559
-2.789227110282355e-05
0.0001690404777895236
1.841212367636693
-2.210281129362064e-05
0.0001329540572777618
1.841211363537882
-1.67403159111244e-05
0.0001000789020744396
1.841210934142016
-1.171487045358816e-05
6.970497325255884e-05
1.841210786667134
-6.931755233348128e-06
4.111286076777923e-05
-2.294381658884935e-06
1.35861665759851e-05
1.841438080802444
2.776515758969956e-05
-2.113276900443943e-05
-1.841459231078495
1.841418735262982
2.562657101634613e-05
-2.004068509084966e-05
1.841401385950922
2.319045320178167e-05
-1.861499611629955e-05
1.84138613760093
2.056260062886025e-05
-1.691741025725919e-05
1.841373028829736
1.78265100778674e-05
-1.500378779499087e-05
1.841362052015423
1.504371468599083e-05
-1.292286811604973e-05
1.841353171139253
1.225566965779024e-05
-1.071588054382927e-05
1.84134633690837
9.486535282231785e-06
-8.41684098849026e-06
1.841341498906436
6.746373796707067e-06
-6.053350798263297e-06
1.841338614786194
4.034445898588204e-06
-3.647743157798488e-06
1.342437759901387e-06
-1.218456288066061e-06
1.841435942215885
5.627985310826621e-05
-2.220858548271208e-05
-1.841457516126411
1.841416299145173
5.184372597186474e-05
-2.100495394701997e-05
1.841398758098366
4.683109485397396e-05
-1.9462806288099e-05
1.841383401510399
4.145697704949215e-05
-1.764857238188238e-05
1.841370246034364
3.588902869424624e-05
-1.562133869403173e-05
1.841359263970416
3.024904081883051e-05
-1.34317520606475e-05
1.841350402004897
2.461742499719585e-05
-1.112185662147346e-05
1.841343596746903
1.903932886485472e-05
-8.725624181283091e-06
1.841338786978522
1.353140698423513e-05
-6.269969119010495e-06
1.841335922778082
8.088638396767307e-06
-3.776081822588158e-06
2.690885211807249e-06
-1.260958358863279e-06
1.8414315060887
8.629920147740223e-05
-2.442112049472227e-05
-1.841453915705443
1.841411286514095
7.92371115991841e-05
-2.298168412120364e-05
1.841393383980527
7.13606763995463e-05
-2.119559072890598e-05
1.841377833562024
6.300022454297505e-05
-1.91388665735059e-05
1.841364606046469
5.440806604759621e-05
-1.687699751329308e-05
1.841353632354576
4.576294100644417e-05
-1.446426541444169e-05
1.841344823908738
3.717860580643163e-05
-1.194409900466058e-05
1.841338088825023
2.87143997708128e-05
-9.350113864492356e-06
1.841333344209935
2.038633191232721e-05
-6.707584560672378e-06
1.841330525024892
1.217783991296169e-05
-4.035163867947762e-06
4.049854252439594e-06
-1.346727417938702e-06
1.841424443998818
0.0001185857612899691
-2.789548930049645e-05
-1.841448073798109
1.841403410078881
0.0001083788830165133
-2.606910891600523e-05
1.841385023528687
9.719196706377149e-05
-2.388851804444632e-05
1.841369241403529
8.547764401720351e-05
-2.144443310688359e-05
1.841355960921426
7.357137461121263e-05
-1.881171387805346e-05
1.841345048019377
6.170189628740275e-05
-1.604956258129896e-05
1.841336359702703
5.000632196903254e-05
-1.320280614568046e-05
1.841329760757159
3.854686485560421e-05
-1.030380720673187e-05
1.841325135717928
2.732730656167341e-05
-7.374682865003136e-06
1.841322397039225
1.630824550602484e-05
-4.429628280443819e-06
5.420834071194532e-06
-1.477235399848177e-06
1.841414237120564
0.0001539032007722753
-3.282758775162672e-05
-1.841439418281187
1.841392223162963
0.0001398114355986025
-3.041903059720209e-05
1.841373309205601
0.0001246907682084242
-2.765624231832256e-05
1.841357335134157
0.0001091207170507147
-2.464979760084681e-05
1.841344091443121
9.351323063100381e-05
-2.148634953750663e-05
1.841333352445076
7.813381831134336e-05
-1.823042028921881e-05
1.841324900245612
6.312661592566827e-05
-1.492724117870121e-05
1.841318541198879
4.853953717830528e-05
-1.160602413404382e-05
1.841314116656893
3.434740821070121e-05
-8.283281097180412e-06
1.841311509627817
2.047225122094779e-05
-4.965990599625838e-06
6.800727527165598e-06
-1.654540288621128e-06
1.841400145355369
0.0001929956649782127
-3.949370682872716e-05
-1.841427113700259
1.841377102495555
0.0001740183886922645
-3.624161401458774e-05
1.841357739154436
0.0001541447470909674
-3.265457474657092e-05
1.841341727647718
0.0001340776393061525
-2.886770278297769e-05
1.84132871203078
0.0001142887013081407
-2.498056827230725e-05
1.841318345242669
9.505685744137793e-05
-2.106177335986843e-05
1.841310313166838
7.650788437096877e-05
-1.715427270010395e-05
1.841304349069921
5.86506652342712e-05
-1.328065649159952e-05
1.841300241499876
4.140827332843599e-05
-9.447990549354066e-06
1.841297838104102
2.464361173744246e-05
-5.652068196878296e-06
8.180267245916362e-06
-1.881092953404143e-06
1.841381168079096
0.000236544235004743
-4.82626092997534e-05
-1.841409996723339
1.841357228853951
0.0002113764917435307
-4.381062084786912e-05
1.841337672046651
0.0001857179376791862
-3.908154132150548e-05
1.841321938709727
0.000160374003286025
-3.423788869289296e-05
1.841309480186931
0.0001358417244451985
-2.939059447015795e-05
1.841299796269615
0.0001123747154143438
-2.460822360359524e-05
1.841292455947707
9.004259897228361e-05
-1.992607172017356e-05
1.841287106678008
6.878103828516795e-05
-1.53542774425026e-05
1.841283476838286
4.843163486743068e-05
-1.088463812859441e-05
1.841281374759625
2.877267037864378e-05
-6.496148502513703e-06
9.542477670297442e-06
-2.159459759349688e-06
1.841356000335821
0.0002850885093437227
-5.960869488640027e-05
-1.84138649524369
1.841331570299914
0.0002520807364691429
-5.346757302310531e-05
1.841312328112284
0.0002193866290620895
-4.717650940536996e-05
1.841297406430879
0.0001878617529183795
-4.092381002903331e-05
1.84128601317787
0.0001579665986155765
-3.482512904082827e-05
1.841277464153141
0.0001298688392452618
-2.89400558289325e-05
1.841271194387025
0.0001035280139438232
-2.328667861249544e-05
1.841266757274616
7.876117196701334e-05
-1.785344641001065e-05
1.841263817873815
5.529134053369858e-05
-1.260835844131699e-05
1.84126214456687
3.278203411660741e-05
-7.505858957790919e-06
1.086130993852685e-05
-2.491949034461841e-06
1.841322992562979
0.0003388975359044366
-7.412341959896512e-05
-1.841354536310678
1.84129887619247
0.0002960341032270042
-6.562224479485618e-05
1.841280803236106
0.0002548530930646109
-5.721535395923185e-05
1.841267511276607
0.0002161558890656289
-4.910586291534753e-05
1.841257915418526
0.0001802639035734866
-4.139849611028978e-05
1.841251123327877
0.0001471690928958258
-3.412720171982377e-05
1.841246427545022
0.0001166474817559726
-2.727712672547707e-05
1.841243287443148
8.833994410832647e-05
-2.080104811847149e-05
1.841241308567422
6.180685469292513e-05
-1.463108159220177e-05
1.841240223842717
3.656329651624546e-05
-8.686708563872694e-06
1.210065050705201e-05
-2.880133805011736e-06
1.84128012913029
-9.25196442604101e-05
-1.841311456710049
0.0003977713582112957
1.841257695182311
-8.074527274860079e-05
0.0003426942903388409
1.841242106032116
-6.949872063115386e-05
0.0002914361087609445
1.841231619291108
-5.896924652802422e-05
0.0002445611485040189
1.841224820607842
-4.921992199591284e-05
0.0002020942222635825
1.841220601716723
-4.023056312822873e-05
0.0001637262743033726
1.841218120007375
-3.192884136239814e-05
0.0001289552192669451
1.841216754353735
-2.42115532433023e-05
9.717683326551593e-05
1.841216065009234
-1.695838512076139e-05
6.773971242512999e-05
1.841215761196695
-1.004029945537859e-05
3.997565243672021e-05
-3.324272727740606e-06
1.321397722468839e-05
1.841439252285312
2.661112487345473e-05
-1.84145997474414
1.841420264605373
2.459219587436223e-05
1.841403206958196
2.228100376640149e-05
1.841388190351559
1.977828003461099e-05
1.841375261040767
1.716406070699629e-05
1.841364419460007
1.449783280094152e-05
1.841355637328369
1.182017745904318e-05
1.841348872233943
9.155302290974317e-06
1.841344079411573
6.514006442438661e-06
1.841341220692142
3.896776481006695e-06
1.29684562226553e-06
1.841437233356341
5.390645777690918e-05
-1.841458367439834
1.841417953413277
4.97232794412048e-05
1.841400704234484
4.497232991890383e-05
1.841385576132252
3.985833238708749e-05
1.84137259481288
3.454207835182986e-05
1.841361741804683
2.914145953305442e-05
1.841352972453219
2.373540223388203e-05
1.841346230938116
1.8369436233245e-05
1.8413414621816
1.306197511397049e-05
1.84133862076128
7.810720030310172e-06
2.598880392159948e-06
1.841433050177972
8.257223187758653e-05
-1.841454997271416
1.841413202463762
7.59252184195029e-05
1.841395590236928
6.847196227923663e-05
1.841380259878198
6.052703390977489e-05
1.841367194194039
5.233268790583169e-05
1.841356335747363
4.406238626273403e-05
1.841347606487193
3.582838552105372e-05
1.841340923477
2.76913690293803e-05
1.841336210926521
1.967073283726251e-05
1.841333408921644
1.175469632917016e-05
3.909857807515853e-06
1.841426403164515
0.0001132950791540191
-1.841449540250192
1.841405749207615
0.0001037127042744072
1.841387645308574
9.315031385517557e-05
1.841372065532193
8.203923644118687e-05
1.841358923892397
7.070228202323754e-05
1.841348101746622
5.936248132478642e-05
1.841339469470699
4.815651346980942e-05
1.841332902840799
3.714997144264133e-05
1.841328294890008
2.635264952832729e-05
1.841325564083115
1.573288745686333e-05
5.230638400675422e-06
1.841416820789657
0.0001467524276299808
-1.841441477843603
1.841395186817225
0.000133565526600219
1.841376534231122
0.0001193290366146016
1.84136072857781
0.0001045961529432942
1.841347584091718
8.976496792811868e-05
1.84133689577879
7.509661431768322e-05
1.84132846292869
6.073767012224709e-05
1.841322105518895
4.674315221401136e-05
1.841317675127956
3.309801962793024e-05
1.841315061834078
1.973629298126405e-05
6.557703559062487e-06
1.841403633888611
0.0001835892275085963
-1.841430057128122
1.841380950327219
0.0001658990841697517
1.841361801347448
0.0001472505138142565
1.841345897392774
0.0001283170189601216
1.841332915738089
0.0001095580482086689
1.841322536834573
9.125256579083173e-05
1.841314468410754
7.353456424794666e-05
1.84130846038632
5.642628357622943e-05
1.841304313401281
3.986717560784589e-05
1.841301883244638
2.373816334649025e-05
7.881662038202504e-06
1.841385943745276
0.0002243732426832499
-1.841414237266843
1.841362301756863
0.0002010174397295456
1.841342867852592
0.0001770344323719577
1.841327138422036
0.000153201988170217
1.841314610255685
0.0001300120770366675
1.841304818833038
0.0001077279413121649
1.841297360130091
8.643766223535123e-05
1.841291901278344
6.610016953244138e-05
1.841288184389027
4.658259304310012e-05
1.841286026743346
2.768954985988787e-05
9.185815075315666e-06
1.841362587942314
0.0002695185049003915
-1.841392624164094
1.841338318749537
0.0002390423704534257
1.841319035408416
0.0002086179195417955
1.841303948510861
0.0001790848313858767
1.841292326119929
0.0001509153209315884
1.841283528553959
0.0001243045666754483
1.841277022637387
9.924744396712304e-05
1.841272383701892
7.559926758243008e-05
1.841269291345836
5.31215571535982e-05
1.841267523008514
3.151533192589204e-05
1.044490255062257e-05
1.841332111807905
0.0003191638306294547
-1.841363399205207
1.841307894298586
0.000279811569412015
1.84128950232026
0.0002416766754977505
1.841275779000439
0.0002055753972069817
1.841265715365697
0.0001718738281017772
1.841258471431283
0.000140621992203549
1.841253374460975
0.0001116575684743315
1.841249905991427
8.468148134092904e-05
1.84124768512064
5.931034670147993e-05
1.841246452579163
3.511129404019214e-05
1.162422087199628e-05
1.841292759546672
-1.841324255771298
0.0003729918182329361
1.841269759404675
0.0003227406596195692
1.841253401041964
0.0002755271468632969
1.841242077431328
0.0002319944394889528
1.841234463529791
0.0001922705099204336
1.841229507007549
0.0001561533650518566
1.841226398373844
0.0001232416503119724
1.841224534856789
9.302155104282793e-05
1.841223486067964
6.492131166613291e-05
1.841222965505982
3.834304119674347e-05
1.267936733553177e-05
-7.641219206844168e-06
3.081362095613826e-05
-1.84148161462662
3.036084144896089e-05
-1.500329256742816e-05
-1.841481709150141
-1.582433145171527e-05
8.063310921047203e-06
6.169953008154822e-05
-1.841480496801463
2.94801096876619e-05
-2.182603162567512e-05
-1.84148188844847
5.988027410613741e-05
-2.300219989880655e-05
-1.841480738421271
-2.542938175874939e-05
1.752028470518601e-05
9.214110879906005e-05
-1.841478267442461
2.821842916954672e-05
-1.841482134363804
5.727662620593726e-05
-1.841481071679706
8.802925309471223e-05
-1.841478790784716
2.926255045573659e-05
0.000121357485764795
-1.841474963965073
6.263535502171179e-05
-1.841480369812466
9.650055827137294e-05
-8.935708976309992e-06
-1.841477692140337
0.0001334963295760655
-1.031703206422236e-05
-1.841473183146693
0.0001747793611233225
-1.230080443801544e-05
-1.841466186966809
0.0002215806959806718
-1.502246570694817e-05
-1.841455714316329
0.0002751864760977104
-1.866910020456072e-05
-1.841440331069265
0.0003368766565958855
-2.349190513228905e-05
-1.841418004021371
0.0004077931400643599
-2.982085258298252e-05
-1.841385897902569
-3.807969575906177e-05
-1.841340125339755
0.0004886948948599095
9.501880735740544e-05
-1.841477889970544
0.0001313683288580372
-2.020294305242023e-05
-1.841473503091848
0.0001718598239730421
-2.405027679392171e-05
-1.841466702533157
0.0002176689362773824
-2.93192436865051e-05
-1.841456534630101
0.0002700130335642527
-3.63633991950465e-05
-1.841441620727998
0.0003300875688350029
-4.565516857368708e-05
-1.841420012890691
0.0003989338452779041
-5.781148146408912e-05
-1.841389005784965
-7.361892458178247e-05
-1.84134490800464
0.0004771984568598953
0.0001272412782440606
-1.841474114358654
0.0001662077816842019
-3.474756032544317e-05
-1.841467687500213
0.000210112641915183
-4.223763958507863e-05
-1.841458100163461
0.0002600457146135231
-5.221574379438397e-05
-1.841444077450181
0.0003170474423750509
-6.532221878201581e-05
-1.84142382991989
0.0003819771365269578
-8.238561854412214e-05
-1.841394891866194
-0.0001044512304882132
-1.841353929613383
0.0004552823476020914
0.000158173143090645
-1.841469056760374
0.0001994090887990969
-1.841460273192368
0.0002459863453891391
-1.841447477863543
0.0002987434638086484
-1.841429092520094
0.0003583072645234608
-1.841402967556093
-1.841366236490586
0.0004248769250096985
3.124180302665531e-05
-7.535028932378348e-06
-1.841505321400245
6.364756737298194e-05
-7.975707931863503e-06
-1.841504799868222
9.842935974901934e-05
-8.889880044096017e-06
-1.841503584051871
0.0001368949307687058
-1.034627510553529e-05
-1.841501302441813
0.0001804930758808609
-1.2456034251133e-05
-1.841497329076834
0.0002308523611596058
-1.538318200776823e-05
-1.841490690418723
0.0002898035749640587
-1.935991425260522e-05
-1.841479922367888
-2.470768117836585e-05
-1.841462859676962
0.0003593669127160366
3.076908486344568e-05
-1.478914063063288e-05
-1.841505224122482
6.26669312175921e-05
-1.564559058664383e-05
-1.841504724763954
9.686707882750058e-05
-1.742107995224718e-05
-1.841503558917427
0.0001346317835119136
-2.024651596407809e-05
-1.841501367554688
0.0001773531125313593
-2.433308342985216e-05
-1.841497546811905
0.0002265865042545556
-2.999141720070677e-05
-1.841491159785512
0.0002840670035540904
-3.765936113708713e-05
-1.841480801779216
0.0003516894086163563
-4.793978864652485e-05
-1.841464403187047
-6.164928477891121e-05
3.186483125361308e-05
-1.841438950315169
0.0004314183932526792
2.98503674931124e-05
-2.150110373700775e-05
-1.84150502685209
6.076235652940897e-05
-2.272626316809943e-05
-1.841504569736731
9.383622208619151e-05
-2.526337645096091e-05
-1.841503499010383
0.0001302481059193462
-2.929355644941817e-05
-1.841501479201192
0.0001712833947955516
-3.510785964003246e-05
-1.841497948011874
0.0002183610695011374
-4.313211477607846e-05
-1.841492037139524
0.0002730391470111178
-5.3962413250591e-05
-1.84148245247443
0.0003369831761546741
-6.841264421717777e-05
-1.841467301092241
0.0004118666771380459
-8.757436587622531e-05
-1.841443850284591
-0.0001128860671151911
7.987585485511873e-05
-1.841408205646612
0.000499152923735123
2.853613397846292e-05
-1.841504725035151
5.804078475674622e-05
-1.841504326369066
8.951303155058103e-05
-1.841503387087108