/*--------------------------------*- C++ -*----------------------------------*\
  =========                 |
  \\      /  F ield         | OpenFOAM: The Open Source CFD Toolbox
   \\    /   O peration     | Website:  https://openfoam.org
    \\  /    A nd           | Version:  7
     \\/     M anipulation  |
\*---------------------------------------------------------------------------*/
FoamFile
{
    version     2.0;
    format      ascii;
    class       volScalarField;
    location    "0";
    object      Phi;
}
// * * * * * * * * * * * * * * * * * * * * * * * * * * * * * * * * * * * * * //

dimensions      [0 2 -1 0 0 0 0];

internalField   nonuniform List<scalar> 
12681
(
14.0007755772045
12.66732130602598
11.33388131005764
10.00045409367079
8.667038090344354
7.33363171153211
6.000233380417133
4.666841552195159
3.333454723007808
2.000071429804093
0.6666902433694823
14.00075458966955
12.66730195988277
11.33386382441425
10.00043860715619
8.667024678510593
7.333620403855974
6.000224175741319
4.6668344319561
3.333449661967685
2.000068404241103
0.6666892368033679
14.00071202005462
12.66726279904401
11.33382849565643
10.00040737022853
8.666997666585281
7.333597659040401
6.000205680899251
4.666820137668275
3.333439508206984
2.000062336792121
0.6666872186755992
14.00064667216779
12.66720288823361
11.33377461628657
10.00035986546446
8.666956689353777
7.333563229008435
6.000177734432864
4.666798569401712
3.333424203959355
2.000053198194757
0.6666841801261849
14.00055673665403
12.66712083184675
11.33370114607705
10.00029534457657
8.666901228648053
7.333516769721671
6.000140118564347
4.666769596836599
3.33340367674862
2.000040953100721
0.6666801107169474
14.00043978108706
12.66701479079989
11.33360674424101
10.00021286724529
8.666830652819751
7.333457877460389
6.000092590080135
4.666733083653378
3.333377856855879
2.000025570532203
0.6666750019089319
14.0002927523835
12.6668825197018
11.33348982450397
10.00011136206746
8.666744275737793
7.333386141276907
6.000034923907481
4.666688921325597
3.333346701203432
2.00000703805649
0.6666688517560498
14.00011200912523
12.66672143937489
11.33334864455177
9.999989717611712
8.66664144040025
7.333301214555637
5.999966970864102
4.666637072918842
3.333310223807214
1.99998537966291
0.6666616707926379
13.99989341130349
12.66652876629689
11.33318144506024
9.99984691330447
8.666521632738606
7.333202908429199
5.9998887305923
4.666577626982747
3.333268532518551
1.999960677048642
0.6666534889967825
13.99963250864366
12.66630172818065
11.33298665691011
9.999682200663029
8.666384630623073
7.333091308682367
5.999800439496046
4.666510860594188
3.333221871015137
1.999933093559602
0.6666443635587416
14.00078131861129
12.66732674563618
11.3338863582695
10.00045867782281
8.667042153018086
7.333635208525596
6.000236278631618
4.666843827620944
3.333456358943248
2.000072415398958
0.6666905725513499
14.00076063028557
12.66730766707303
11.33386910737925
10.00044339334883
8.667028911510164
7.333624040967604
6.000227185575892
4.666836792177294
3.33345135733391
2.000069425024463
0.6666895776349318
14.00071867687174
12.66726905542793
11.33383425892285
10.00041256860881
8.667002246183088
7.333601580647114
6.0002089169425
4.666822669475867
3.333441323696305
2.000063428645078
0.6666875830268785
14.00065429882352
12.66721000411163
11.33378112729459
10.00036570249041
8.666961803695646
7.333567587926864
6.000181317113497
4.666801363486146
3.333426202714631
2.000054398337835
0.6666845802921465
14.00056574446075
12.66712916206125
11.33370870580615
10.0003020713666
8.666907083597149
7.333521731199835
6.000144176805121
4.666772749492239
3.333405925397307
2.000042300643673
0.6666805595893238
14.00045066329529
12.667024752276
11.33361569953722
10.00022076800792
8.666837477565229
7.333463622803749
6.000097263569036
4.666736698147764
3.333380426290185
2.000027106867243
0.6666755130952131
14.00030611264092
12.66689461094808
11.33350058099472
10.00012076235734
8.666752327870514
7.333392870829615
6.000040364753317
4.666693108755367
3.333349666983228
2.000008807022941
0.6666694396221873
14.00012859477267
12.66673626181038
11.33336167968307
10.00000099186393
8.666651009948406
7.333309149619395
5.999973344317669
4.666641952324744
3.3333136660355
1.999987427398655
0.6666623504020115
13.99991415139894
12.66654704653422
11.33319732019847
9.999860490675166
8.666533044377228
7.333212291531581
5.999896214417819
4.666583324444919
3.333272535015107
1.999963051433487
0.6666542759156368
13.99965855509094
12.66632433916015
11.33300602656968
9.999698567633962
8.66639824293223
7.333102401421842
5.999809221486298
4.666517506990752
3.333226519601242
1.999935843153581
0.6666452734980646
14.00079259589909
12.66733743393869
11.33389628081722
10.00046769099069
8.66705014307276
7.333642087713296
6.00024198108143
4.666848305428863
3.333459578702109
2.000074355356067
0.6666912205108887
14.00077249009531
12.66731887676658
11.33387948773042
10.00045280083161
8.667037234220635
7.333631193988873
6.000233106286161
4.666841435868835
3.333454693396944
2.00007143386078
0.6666902484007778
14.00073173571892
12.66728133475813
11.33384557555827
10.00042278026202
8.667011245613653
7.333609289511038
6.000215279874964
4.666827648768628
3.333444894791886
2.000065576570893
0.666688299828735
14.00066924319371
12.66722395616008
11.33379390058571
10.00037715940977
8.66697184666927
7.333576150829621
6.000188357436276
4.666806855582587
3.333430132275667
2.000056758135101
0.6666853671756627
14.00058337074587
12.66714547489996
11.33372352019576
10.00031526180549
8.666918570846283
7.333531470146102
6.000152145961744
4.666778942335623
3.33341034353644
2.000044948715941
0.666681441744078
14.00047192360049
12.66704423213625
11.33363322688085
10.00023624335522
8.66685085436893
7.333474890484566
6.000106433584695
4.666743793015595
3.333385471275316
2.000030123982302
0.666676517079324
14.00033216811896
12.6669182188203
11.33352160482261
10.00013915265089
8.666768093585224
7.333406056208488
6.000051031323599
4.666701321844222
3.333355485973941
2.000012278608278
0.6666705934375252
14.00016087746602
12.66676515308491
11.33338711941946
10.00002301975195
8.666669725439927
7.333324681414563
5.999985828062275
4.666651514885473
3.333320414790068
1.999991443226269
0.6666636833674934
13.9999544340627
12.66658261186193
11.3332282532398
9.999886981930887
8.666555335834037
7.333230638462005
5.999910859500447
4.666594480933355
3.333280376233144
1.999967704511909
0.6666558182809826
13.99970902550222
12.66636824233891
11.33304370444827
9.999730455252594
8.66642479990386
7.333124067739567
5.999826390634345
4.666530510629008
3.333235619545262
1.999941227642018
0.6666470557409603
14.00080901153216
12.66735300125658
11.33391074068028
10.0004808321933
8.667061797800779
7.333652126012637
6.000250305024359
4.666854843510706
3.333464280858537
2.000077188870852
0.6666921669903303
14.00078974140725
12.66733519311474
11.3338946061603
10.00046650999051
8.667049368653377
7.333641627581988
6.000241745585509
4.666848213809051
3.333459563819384
2.000074367067186
0.6666912278952316
14.00075070569644
12.66729918660204
11.33386203999036
10.00043764706017
8.667024355424221
7.333620525145779
6.000224557880443
4.666834911803504
3.333450105147749
2.000068711028543
0.6666893459473507
14.00069091201129
12.66724420627147
11.33381245684526
10.00039381713906
8.666986459339876
7.333588617900551
6.000198613187475
4.666814859432832
3.333435860823971
2.00006019900706
0.6666865146710074
14.00060887074708
12.66716910396836
11.3337450031697
10.00033440941613
8.666935261135656
7.333545631276148
6.000163741229448
4.66678795772937
3.333416777870865
2.000048806226495
0.666682726967345
14.00050260174776
12.66707238410428
11.33365859248801
10.00025866737433
8.6668702589175
7.333491250969224
6.000119758778667
4.666754109239841
3.333392810339411
2.000034514428133
0.6666779782854574
14.00036965782439
12.66695225028471
11.33355196280559
10.00016574815371
8.666790923779143
7.333425171525039
6.000066509611449
4.666713248827589
3.333363941005344
2.00001732472363
0.6666722708750088
14.00020718064866
12.6668066859318
11.33342376545802
10.00005480878296
8.666696777102668
7.333347161636497
6.000003916821552
4.666665383187599
3.33333020878279
1.999997273670285
0.666665619077896
14.00001201207615
12.66663358628423
11.33327269730939
9.999925126663683
8.666587493594408
7.333257147984766
5.99993204798281
4.666610638890373
3.33329174144831
1.999974452223025
0.6666580555277696
13.99978089344017
12.66643096411327
11.33309769006161
9.999776261720875
8.666463033236123
7.333155318266274
5.999851192502193
4.666549317817685
3.333248792576561
1.999949026803199
0.6666496379885211
15.33424548364337
15.33425141923329
15.33422943379638
15.33426307357662
15.33424172591099
15.3341983643332
15.33428002772619
15.33425959369127
15.33421811751368
15.33415437219247
15.33422317033165
15.33417781369525
15.33410793398064
15.33401126422474
15.33388469985979
15.33372424487305
15.3335249719076
15.33328102674248
15.33298572826175
15.33418475482633
15.33411594810376
15.33402081931391
15.33389636909655
15.33373874676338
15.33354322008391
15.33330419115475
15.33301530802541
15.33413164146131
15.33403950122534
15.3339191438662
15.3337669933324
15.33357868436664
15.33334909828768
15.33307249415433
15.33406649263381
15.33395195346123
15.33380755377624
15.33362942573301
15.33341309425922
15.33315363037802
16.65106358651645
16.65104038305532
16.65099311165249
16.65092000761873
16.65081833499109
16.65068428177824
16.65051282644369
16.65029758771428
16.65106958969884
16.65104673732812
16.65100019424924
16.65092825053021
16.65082825875465
16.65069653761006
16.6505282505512
16.65031727240532
16.65005607072253
16.65108137225594
16.65105920222172
16.65101407368106
16.65094438099623
16.65084764500243
16.65072043187102
16.65055825388837
16.65035546619298
16.65010518691096
16.64979929123563
16.65109850225617
16.65107730831051
16.65103420109637
16.65096771926922
16.65087561554995
16.65075479536906
16.6506012459209
16.65040997077217
16.65017495769695
16.64988922793745
17.95122984360852
17.95120627192781
17.9511581421167
17.95108342718756
17.95097894922723
17.95084020889284
17.95066115094308
17.95043386536552
17.95014823412482
16.65003068390642
17.94979155811438
16.64970265409738
19.25141896662164
17.95123577810946
17.9512125731744
17.95116520696766
17.95109171607098
17.95098902671925
17.9508527961138
17.95067719594531
17.95045463982791
17.95017546753988
17.94982762408675
16.64973565387874
19.25143017924573
17.95124742138686
19.2514079478487
17.95122492861343
17.95117904410305
17.95110792536328
17.95100869622805
17.95087730981695
17.95070836473023
17.95049487963656
17.95022804327567
17.94989698125681
19.25144646014468
17.95126433829391
19.25142526035061
17.95124286287625
19.25138196205703
17.95119909249666
17.95113135163151
17.95103703580595
17.95091250263688
17.95075292989692
17.95055214955876
17.95030247907613
17.94999459439127
21.85183082195869
20.55161376401559
19.25141324940411
21.85181014334917
20.55159138128218
19.25138992223928
21.85176764288589
20.5515454749529
19.25134218422264
21.85170093069203
20.55147367249282
19.25126779467037
21.85160614961503
20.55137217816852
19.25116320350912
21.85147760720588
20.55123545990156
19.25102330820769
21.85130720870104
20.55105578045766
19.2508411028298
21.85108360893938
20.55082252290895
19.25060719763744
21.85079095762163
20.55052124183381
19.25030918716083
21.8504070582548
20.55013235417861
19.24993085296281
21.84990075563384
20.54962937068225
19.24945120960493
21.85183562803183
20.55161910624183
21.85181529592167
20.55159709006413
19.25139601213396
21.85177352448789
20.55155195242843
19.25134905290428
21.85170800156757
20.55148139703587
19.25127591936578
21.8516150019577
20.55138175616559
19.25117317944023
21.85148904170159
20.55124769689011
19.25103591111887
21.85132234843027
20.55107178378651
19.25085737621705
21.85110407494677
20.55084385467622
19.25062857790444
21.85081914594779
20.55055015182528
19.25033768664451
21.85044658178925
20.55017214169498
19.24996933281397
21.84995714087282
20.54968496499394
19.24950380311442
21.8518450463143
20.55162957934631
21.8518253855098
20.55160827383567
21.85178502510817
20.55156462517646
19.25136249842789
21.85172180021036
20.55149648172014
19.25129179652645
21.85163223476165
20.5514004178625
19.25119263359155
21.85151123648829
20.55127147564393
19.25106042819834
21.85135163464918
20.55110278453868
19.2508889446089
21.85114350360973
20.55088502706876
19.25066991812637
21.85087318841632
20.55060571020135
19.25039258187571
21.85052191496334
20.55024820255688
19.25004310699163
21.85006385316338
20.54979052431642
19.24960400964744
21.85185870429222
20.55164477678717
21.85183999892107
20.55162448389153
21.85180164361253
20.55158295377123
21.85174167560263
20.55151823371206
19.25131471698914
21.85165695892753
20.55142722941721
19.25122062319956
21.85154293177598
20.55130549242235
19.25109556344944
21.85139322979326
20.55114691279858
19.25093398115518
21.85119914649594
20.55094329762054
19.2507285911816
21.85094887705669
20.550683814651
19.25047003090402
21.85062647756114
20.5503542882226
19.25014647682253
21.85021047848774
20.54993635873324
19.24974329310697
13.99942098417386
13.99951079591663
12.66619725535975
11.33289817040354
9.999608265747451
15.3327428069371
15.3328459608806
16.64954504683556
17.94939642388099
16.6493456813497
17.94948862692046
16.64942856757875
17.94961753024117
25.75256681746977
24.4523093868777
23.15206327838692
25.75255575554586
24.45229442598529
23.15204508363174
25.75253289419635
24.45226356094705
23.15200761484888
25.75249667477372
24.45221480372474
23.1519486056986
25.75244453483336
24.45214490110591
23.15186437052592
25.7523725916653
24.45204895666345
23.15174941076808
25.75227512806249
24.45191982533273
23.15159579463663
25.75214376809229
24.45174716270218
23.15139220023166
25.75196614497922
24.45151593564042
23.15112243573207
25.75172370000205
24.45120409753532
23.1507630963655
25.75138790212153
24.45077909461467
23.15027961170697
25.75256912389146
24.45231265940451
23.15206739071701
25.75255825947578
24.45229795982534
23.15204950737754
25.75253581687014
24.45226764763914
23.15201269575815
25.75250028938785
24.45221980072828
23.15195476401336
25.75244920508926
24.45215127990617
23.15187215424107
25.75237882958749
24.45205737374883
23.15175957261931
25.75228368654086
24.4519312335533
23.15160940996443
25.75215579666726
24.45176299431101
23.15141085500578
25.75198346352873
24.45153841539066
23.15114853643176
25.7517492919621
24.45123679463407
23.15080039352741
25.75142676055954
24.45082788134838
23.15033409607757
25.75257363642621
24.45231906666778
23.15207544613759
25.75256315403173
24.45230487275428
23.15205816574885
25.75254152040118
24.45227562918216
23.1520226251581
25.75250732697027
24.45222953844006
23.15196677350152
25.75245827187587
24.45216367591043
23.15188729368199
25.7523908974401
24.45207367597598
23.1517792755506
25.75230017223159
24.45195323877263
23.15163570972252
25.75217884097617
24.4517933767299
23.15144672499806
25.75201642051774
24.45158128423805
23.15119844484717
25.75179765826743
24.45129871638265
23.15087124007258
25.7515002022519
24.45092011483178
23.15043682196995
25.75258016301265
24.45232834447375
23.15208711979391
25.75257022289201
24.45231486887538
23.1520706966741
25.75254973543388
24.45228714058689
23.15203696017152
25.75251742607301
24.45224353251037
23.1519840525689
25.75247122348374
24.45218141146552
23.15190898464298
25.75240804083296
24.45209687667326
23.15180736395661
25.75232343297816
24.45198435466038
23.15167298038564
25.75221107428409
24.45183599015426
23.15149719377601
25.75206197443281
24.45164073944992
23.15126803827536
25.7518633256956
24.4513830106977
23.15096890742876
25.75159692700124
24.45104046024043
23.15057661600217
13.99896673948271
12.66573571796041
11.3325108695967
9.999286925836604
8.666060770459197
7.332830799181786
5.999596444833838
4.66635783663874
3.333115561020287
1.999870495746148
0.6666236946947772
13.99900793572903
12.66577026271276
11.33253956981801
9.999310537948608
8.666079963338772
7.3328461403242
5.999608399161236
4.666366771286463
3.333121752163332
1.999874135256886
0.6666248954504571
13.99908733386984
12.66583703723808
11.33259518863918
9.999356396862888
8.666117308651307
7.332876037133882
5.999631724965183
4.666384222047125
3.333133853154926
1.999881252291823
0.6666272440711046
13.99919943388122
12.66593175097015
11.33267440077358
9.999421939367668
8.66617084333194
7.332919001362561
5.999665314061788
4.666409390946864
3.333151326570889
1.99989153694298
0.6666306392982
13.9993248857169
12.66603790238364
11.33276319688371
9.999495344139113
8.66623069069391
7.332966915269262
5.999702671338406
4.666437308956682
3.333170663867802
1.999902899380354
0.6666343869708565
13.99935765318395
12.6660658793555
11.3327868119333
9.999515041646092
8.666246890977837
7.332979992799991
5.999712944410338
4.666445036061668
3.333176043586132
1.999906071771642
0.6666354352395095
11.33283266450743
9.999553359248505
8.666278455811876
7.333005507334034
5.999733009268673
4.666460141198009
3.333186566650058
1.999912279755767
0.6666374869988392
7.333042241691588
5.99976194854852
4.666481957384168
3.333201780592251
1.999921261152674
0.6666404563776954
15.33263184575168
15.33221217582511
15.33226080640061
15.332354215853
15.33248542108166
16.64930253983595
17.94879982243759
16.64881830410639
17.94886459798905
16.64887490176515
17.94898786286163
16.64898318036975
17.94915896215912
16.64913442125561
21.84922883624611
20.54897649498225
19.24884342736304
21.84931056238045
20.54905546851045
19.24891627255169
21.84946376828254
20.54920397741994
19.24905365737107
21.84967218428499
20.54940653983499
19.24924285526571
26.07596187083549
24.77517837721197
23.14961844330108
26.0760102228705
24.77521859209665
23.14969992858168
12.66612008440453
8.66632380286687
15.33266975052217
17.94934825244836
26.07611443146486
24.77535130871782
23.14985179384083
26.07625971825353
24.45057890239253
23.15005892907223
26.72655108203554
26.72666788288381
26.7264275362572
26.72646671886588
13.99856091138226
12.66539941395877
11.33223438252005
9.999061560115264
8.665879074025383
7.332686590221096
5.999484742031189
4.666274754330863
3.333058202358965
1.999836860810974
0.6666126116760167
13.9986124145101
12.66544177862064
11.33226899749063
9.999089634248344
8.665901619496806
7.332704430655469
5.99949853060837
4.666284993995644
3.333065264261916
1.999840999256192
0.6666139749240859
13.99871137177306
12.66552346571129
11.33233594329263
9.999144069099467
8.665945428386651
7.332739158471695
5.999525409494694
4.666304976943326
3.333079056954171
1.999849086422727
0.6666166396274525
13.99885043179912
12.66563888001386
11.33243098094074
9.999221662316204
8.666008090541396
7.332788973297325
5.999564054374053
4.666333758791986
3.333098949010528
1.9998607599519
0.6666204876755185
15.33172672399251
15.33178886637851
15.33190776991059
15.33207386847734
17.94813412237405
16.64824512709814
17.94822119386567
16.64831921513335
17.94838584081059
16.64846027768109
17.94861294966101
16.64865612134462
22.17312389552697
20.54813517920599
19.24808325027136
22.17322706014007
20.54824943487122
19.24818575644803
22.17345233071552
20.54846128506619
19.24837468258695
21.84898225864588
20.54874333928203
19.24863258593473
26.0756410716248
24.93673642275486
22.82331142596145
26.07570345202793
24.93682289219221
26.07573482890248
24.12450884742696
22.82341579676638
26.23801750144049
24.77457485868344
22.82364298862092
22.82396572520706
26.23808000622959
24.93710489820631
26.5633026161395
26.72624201146068
26.56335418747088
26.56365027471884
26.7262182650579
26.07566200166312
25.42519228689187
25.42516823964723
26.23780789799457
26.2377870111363
25.58724693657273
25.58723129673017
25.42523925804614
26.07576200317115
25.42530625740771
26.23785463074445
26.23792504186741
25.58734016265959
25.58738441203962
26.23769931922786
25.58735284351941
25.58712314505789
24.12406469815571
24.93662410635887
24.28620712545791
26.56301435411882
26.56402882236303
26.56311338284558
26.56309447868433
26.72626505550641
26.56315515318135
26.56321887276432
13.99811047640628
12.6650331831402
11.33193812595262
9.998823354509028
8.665689201940287
7.332537298606614
5.999369971443286
4.666189889519967
3.332999864625515
1.999802748190695
0.6666013869605232
13.99761482109932
12.66463823431931
11.33162398392018
9.998574296841674
8.66549297805456
7.33238447413566
5.99925337687618
4.666104183389229
3.332941202368627
1.999768542656327
0.66659014740319
13.99708447327308
12.66422420912791
11.33130022707148
9.998321203792576
8.665295868372027
7.332232396775773
5.999138219198866
4.666020022167144
3.332883840364449
1.999735187528711
0.6665792022266808
13.99817431745493
12.66508464453324
11.33197945582856
9.998856390402278
8.665715410756778
7.332557830358046
5.999385711741983
4.666201504749075
3.333007837949693
1.999807406446997
0.666602919108103
13.99769330817272
12.66470016239136
11.33167284654021
9.998612781910039
8.665523139208172
7.332407867050752
5.99927116735989
4.6661172300288
3.332950117511154
1.999773735579479
0.6665918528770369
13.99717971276565
12.66429779828127
11.33135727957877
9.998365490413386
8.665330164206029
7.332258739830924
5.999158098996855
4.666034514197318
3.332893700078539
1.999740914275003
0.6665810803660606
13.99829655704101
12.66518360985595
11.33205922158458
9.998920338624485
8.665766268663651
7.332597752203133
5.999416366399845
4.666224153897096
3.333023399698147
1.999816503498844
0.6666059121003307
13.99784300239693
12.66481892320374
11.33176694692556
9.998687151472922
8.66558158697584
7.332453301912746
5.999305783163556
4.666142650665723
3.332967505655881
1.999783870539182
0.6665951825067308
13.99736083616726
12.66443854827633
11.33146691567549
9.998450926162452
8.665396535759484
7.332309850085247
5.999196746434248
4.666062730501783
3.332912918362907
1.999752084707541
0.6665847451085037
13.99846747927674
12.66532286764113
11.3321720861106
9.999011249106323
8.66583885448534
13.99805115153405
12.66498531229358
11.33189964174445
9.998792591914638
13.99761104780389
12.6646348248256
11.33162097809736
9.998571730283034
15.331175824596
15.33055473481287
15.32987381279594
15.33125469095122
15.33065435160341
15.32999767139358
15.33140487315724
15.3308426862009
15.33023133211257
15.33161344861801
15.3311024486941
15.33055057993525
17.94733955395004
16.64757816696304
18.27155154717034
16.6468033484431
17.947454603267
16.64767463892815
17.94654237855209
16.64693023731146
17.9476728072147
16.6478571702844
17.94682987166363
16.64716519386355
17.94797330867105
16.6481091853221
17.94722630652079
16.64748747231121
18.27045557290541
16.64592986295408
18.27054768336777
16.6460920910468
18.2708770235499
16.64639135285266
17.62111389796069
16.64679858300009
22.17252164805372
20.87238223152806
18.92257659993032
22.33382269946069
21.03252062390443
18.92141094633618
22.17264860880831
20.87245549225718
19.24728878660183
22.3341522618862
21.0329120806285
18.92150464611793
22.1729255274898
20.87272138572398
19.24754541445759
22.33426305670078
21.03304427667305
18.92186825294645
19.24789857052051
22.33183218972702
21.0320568340057
18.92014997806111
22.32911010971894
21.02987795991518
18.75657083001384
22.33234690066768
21.03248566243035
18.9202612820124
22.32992631706363
21.02999843359363
18.75663843021207
22.33252074503903
21.03263189894476
18.92064076266039
22.3301981508772
21.03072699650483
18.75708263426975
22.33333448215977
21.03332566925027
22.33144441442198
21.03173062951727
26.23758190199197
24.28604986682806
22.82274053709232
26.23642420575387
23.95938052127301
22.65888534683345
26.23763562733701
26.23647839315345
26.23452658460348
23.95715018033057
22.65683071804242
26.23131210030271
24.92933669057101
22.65397215254727
24.28617562917079
22.82295169975528
23.95944750346904
22.65922236296147
26.23782151691702
24.936777367018
22.82310939748988
26.23680248726844
24.93551429260082
22.65933639659924
26.23723995454937
24.93497607034777
22.65988341983667
26.234629298298
23.95726442721292
22.65736550362922
26.2315229117176
24.92955671656609
22.65483608078369
26.23522932169811
24.93364419925796
22.6575456662687
26.23271268709716
24.93082137982887
22.65512265950625
26.23600177845261
24.93454886182688
22.65838575270582
26.23414426692099
24.93239808372949
22.6564291723935
26.5631250418847
26.56219556893537
26.56259583398427
26.55727699792622
26.5607468952319
26.55839982831949
26.56146049224121
26.55974020009695
26.56290769168225
26.56184844393615
26.56295637571288
26.56189822649305
26.56009444214551
26.55707723122862
26.56018999714259
22.33239012508454
22.3337277306824
22.33225647299692
21.35746218188435
21.357347360895
21.35865797672372
21.35880734571872
20.05778893345295
21.03241383686963
20.05768375720017
21.03367257947339
20.22108933398857
20.87105659169899
20.22113870439231
22.33388466462473
22.33284974066122
22.33247726490103
21.35787058338017
21.3575388968098
21.35885464765455
21.35910841359832
22.33300533523974
22.33465912776617
22.3335417414744
21.35800921478312
21.35849080575703
21.35920527676584
21.52180489023116
22.32987095561112
22.33168197699836
22.32965643567422
21.35697391705383
21.3552971295635
21.35684498211059
21.3551185801055
20.05738137589494
21.03047258535921
20.05605322831347
21.03193543704934
20.05727609442998
21.0303053809001
20.05591719058775
18.92009101049621
18.91943108358132
18.75677745822532
19.73249412391807
19.73125602699061
19.73240399739052
19.73113018432035
22.32886823119065
21.35466292320454
21.35446435742344
20.05556619207592
21.02969274810205
20.05541737554282
18.75639792994597
19.73080105561552
19.73066381149893
22.33192995655682
22.33059770367038
22.33000990912917
21.35742451546822
21.35705876652502
21.35541328394189
21.35590884622142
21.03213707031852
20.05780606030914
20.05745477971957
21.03058149391047
20.05614180302513
21.03104765037173
20.05652665927076
22.32926654603487
21.35479190644222
21.35534067203145
20.05566352599698
21.03051252038135
20.0560833095854
18.75695585786814
19.73089167884349
19.73128392959993
22.33311767561728
22.33084069655891
22.33166512808205
21.35757778989965
21.35810798781923
21.35611552309888
21.35682459077535
20.05791691328174
21.03313761821158
20.22052509528348
21.03124261869681
20.05668887386439
21.03191374105701
20.05725218320396
22.33111642060095
21.35556893671313
21.35634948505301
20.05625978613481
21.03146311956445
20.05687132874571
18.9196767162493
19.7314488687662
19.73202157592078
22.33196097394613
21.35830331399497
21.35708216706994
20.22087081135823
21.03215857076035
20.05745968376517
21.35663195332143
20.05709700352625
26.23755820716701
26.23677133673553
26.23669936315016
25.58698833670983
25.26075643745969
25.58697030730334
25.26067166887799
24.93647838078675
23.95981492298093
24.93547746037497
24.93644857491757
24.28602960382475
24.93539011864925
23.95972462287137
22.6593008086137
23.6356988147114
23.63464937155529
22.66040098759855
22.65921692880748
23.63566904098717
23.63455981779995
26.23634053059633
26.23509363291301
26.23495857835908
25.26034854693578
25.25881509128665
25.25866234306661
25.26025089277119
24.93505749360852
23.95779299653892
24.93348967801125
24.93333457201428
23.95763927412511
24.93495720766493
23.9592777635039
22.65740991870661
23.63421632574483
23.63264505556958
22.65878898709882
22.6572711941136
23.63249402210034
23.63411442757884
26.23681801465272
26.2377165969253
26.23701620878843
25.58709363293506
25.26081148928501
25.58714394460295
25.26104570471666
26.23518057186858
26.23670765796444
26.23554380272471
25.26041189096859
25.25891367197355
25.26068075449231
25.25932770129808
26.23436662999263
26.23229123225341
26.23201671259197
25.25817495373748
25.25572080666031
25.2579962707979
25.25542768711254
24.93284005636039
24.93037393919307
23.9547816466474
24.93265941625053
23.95697355134405
24.93008228698205
23.95450984269444
22.65477647643044
23.63201372862841
23.62971024732885
22.6566741191252
22.65454970087407
23.63184095831275
23.62944852180311
26.23097952612626
25.25467765694397
25.25432899931915
23.95381652697284
24.92899197556927
23.953501269301
23.62878128500632
22.6537151205289
23.6284795484816
24.93654623915573
23.95987393710755
24.93553421402954
24.93664915319087
24.28622863296078
24.93577579519145
23.96012636624145
22.8228255932575
22.65960311567187
22.6593571040187
23.63577619007558
23.63470831281218
23.63588884439533
23.63496109386205
24.93512258820177
23.95789260119462
24.93358987370674
24.93539919291588
24.9340114804393
23.95831419227014
23.95973343747428
22.65894876642021
22.65788541335796
22.65750021735982
23.63428296840782
23.63274302606148
23.63315852726544
23.63456807748248
26.23709852994499
26.23794459268455
26.23761035263622
25.58733445852085
25.26114340912702
25.58740974565862
25.58702098702698
24.28645058835949
24.93587675145637
24.93693385370858
24.28653471709754
23.96023179327961
24.93651254298155
24.28608806689268
26.23569187249208
26.23712437307224
26.23618530157902
25.26079245093925
25.25949749850211
25.26006771318063
25.58646524988701
24.93418476107759
23.958488617379
24.93476831716066
23.95908122739061
23.95985276474823
24.93590815465297
24.28545408448974
22.65804606591453
22.65973755990346
22.6585982676921
23.63333080450968
23.63391785082058
23.63468706942475
23.63509881931125
26.2363590379091
25.26027011707925
25.586731209836
23.95929418474617
24.93605062822001
24.28575523818911
22.65879892337231
23.63412947865461
23.63524920614609
26.23505627239408
26.23246590296115
26.23317868823642
25.25829002957568
25.25877124966813
25.25590814268594
25.25667944963079
24.9329565147894
24.93344455689025
24.93056062633386
23.95495643553527
23.95774635822894
24.93133166550205
23.95568512955386
22.65693248428538
22.65554192908588
22.65492316074301
23.63212560559946
23.62987880755618
23.63259857606792
23.63058367727235
26.23237673700411
25.25489980423299
25.25580880566906
23.95401881001976
24.93046025174511
23.95485832965318
22.6541381401827
23.62897521779559
23.62978282963633
26.23346154549316
26.23580177289713
26.23437299533951
25.25896762031099
25.25962287574655
25.2569886476256
25.25799752623688
23.957944982194