/*--------------------------------*- C++ -*----------------------------------*\
  =========                 |
  \\      /  F ield         | OpenFOAM: The Open Source CFD Toolbox
   \\    /   O peration     | Website:  https://openfoam.org
    \\  /    A nd           | Version:  7
     \\/     M anipulation  |
\*---------------------------------------------------------------------------*/
FoamFile
{
    version     2.0;
    format      ascii;
    class       volVectorField;
    location    "0";
    object      U;
}
// * * * * * * * * * * * * * * * * * * * * * * * * * * * * * * * * * * * * * //

dimensions      [0 1 -1 0 0 0 0];

internalField   nonuniform List<vector> 
12681
(
(1.000096566606521 7.87032560178463e-06 -2.078785218605885e-06)
(1.000085350180068 7.254803702886473e-06 -1.969514036859174e-06)
(1.000075204633198 6.557116273976137e-06 -1.827800843104491e-06)
(1.000066207392485 5.807442972654128e-06 -1.659779181095723e-06)
(1.000058393302003 5.029437658596353e-06 -1.470968077918328e-06)
(1.000051766222707 4.240378551048949e-06 -1.266152812808101e-06)
(1.000046309751358 3.451753429199309e-06 -1.049353519290497e-06)
(1.000041996528497 2.670089645637253e-06 -8.23861061659176e-07)
(1.000038795896651 1.897890045948568e-06 -5.9232145134961e-07)
(1.000036679864372 1.134586118596427e-06 -3.568533154722149e-07)
(1.000035627440093 3.774622942457188e-07 -1.191865356598462e-07)
(1.00009545391833 2.383393120425146e-05 -2.187119590791431e-06)
(1.000084036970742 2.194011824012461e-05 -2.066396472932819e-06)
(1.000073757272468 1.98054004563188e-05 -1.912797672179547e-06)
(1.00006467971387 1.752129084574145e-05 -1.73293181525849e-06)
(1.000056826237582 1.515890965174266e-05 -1.532637775192278e-06)
(1.000050188538477 1.276968438806395e-05 -1.316885242278074e-06)
(1.000044739462453 1.038731920782934e-05 -1.089767687515054e-06)
(1.000040442665114 8.030447581460289e-06 -8.545628462364315e-07)
(1.000037260393124 5.705550310059539e-06 -6.138394941971791e-07)
(1.00003515943662 3.409879489751332e-06 -3.695939738882943e-07)
(1.000034115391678 1.134260208859195e-06 -1.234045317183306e-07)
(1.000093130494216 4.046906316298733e-05 -2.410226887428876e-06)
(1.000081321649321 3.715186843642784e-05 -2.26524245490047e-06)
(1.000070785805804 3.345304787989688e-05 -2.086699911363402e-06)
(1.000061560901681 2.9528134401326e-05 -1.882172167622026e-06)
(1.000053641695546 2.549593380765579e-05 -1.658130241897973e-06)
(1.000046994632262 2.144056782534316e-05 -1.419892084621238e-06)
(1.00004157051455 1.741549067277405e-05 -1.171670832893131e-06)
(1.000037314759599 1.344845789680884e-05 -9.166889572794215e-07)
(1.000034175328559 9.546753122357668e-06 -6.573323426321056e-07)
(1.00003210857427 5.702267381130843e-06 -3.953260719154537e-07)
(1.000031083300394 1.896253943630291e-06 -1.319202907849888e-07)
(1.000089392155137 5.823127522117961e-05 -2.761375350379451e-06)
(1.000077020955457 5.323769897077126e-05 -2.576438595469591e-06)
(1.000066133538432 4.775609226973641e-05 -2.357433937985816e-06)
(1.000056722599798 4.200961948457813e-05 -2.113405947458582e-06)
(1.000048738671006 3.616422646217815e-05 -1.851744471546731e-06)
(1.000042108095342 3.033349452616827e-05 -1.578229082559439e-06)
(1.000036747352524 2.458587558834367e-05 -1.297177470688267e-06)
(1.000032573927564 1.895281187805253e-05 -1.011651259226624e-06)
(1.000029514202607 1.343679688498586e-05 -7.236872525492391e-07)
(1.000027508937441 8.018884276307856e-06 -4.345345624573385e-07)
(1.000026516870353 2.665484493080556e-06 -1.448876757320715e-07)
(1.000083912141748 7.75841552767839e-05 -3.261447259261763e-06)
(1.000070846466371 7.05365376443817e-05 -3.016112149034695e-06)
(1.000059557726318 6.295201708519478e-05 -2.737143297302874e-06)
(1.000049969035874 5.512433218552821e-05 -2.435561905368816e-06)
(1.000041965570587 4.726370025939891e-05 -2.119895363537869e-06)
(1.000035416281388 3.950683051967557e-05 -1.796397265153934e-06)
(1.000030189831903 3.192913227350198e-05 -1.469363037955087e-06)
(1.000026165680897 2.45571556236957e-05 -1.141478768581798e-06)
(1.000023241400956 1.738016380468802e-05 -8.141659011226431e-07)
(1.000021337261878 1.036037345928315e-05 -4.879034840267792e-07)
(1.00002039893162 3.441831472542296e-06 -1.625227556847769e-07)
(1.000076215897463 9.899410145015467e-05 -3.940109876365986e-06)
(1.000062388817268 8.936705435853039e-05 -3.606741348583086e-06)
(1.000050721332973 7.924558990204058e-05 -3.242434834414744e-06)
(1.000041034282973 6.899344091741015e-05 -2.860620951616815e-06)
(1.000033121169341 5.885734134584632e-05 -2.471028535289069e-06)
(1.000026773527356 4.898566679076412e-05 -2.080210525547381e-06)
(1.000021797677627 3.944799632360849e-05 -1.692125290349399e-06)
(1.000018024959096 3.025331662583792e-05 -1.308696241587951e-06)
(1.000015317420443 2.136582944707545e-05 -9.303124213488915e-07)
(1.000013570605109 1.271814158784651e-05 -5.562592400821929e-07)
(1.000012714665421 4.222110336607764e-06 -1.850846892996581e-07)
(1.000065646939218 0.0001229144856870706 -4.837334581966124e-06)
(1.000051097954821 0.0001100067843744726 -4.377865033202063e-06)
(1.000039184112876 9.678738346516787e-05 -3.894591476816371e-06)
(1.000029580787318 8.368111259145579e-05 -3.40355323424893e-06)
(1.00002195779646 7.095465731170737e-05 -2.915427364025445e-06)
(1.000016006936366 5.874858928118251e-05 -2.436562190085923e-06)
(1.000011457481739 4.710720601287161e-05 -1.969961419378091e-06)
(1.000008083514021 3.600402545097424e-05 -1.516138364854321e-06)
(1.000005706225918 2.536239325227184e-05 -1.07381682424704e-06)
(1.000004193542767 1.50715759847203e-05 -6.404878567383047e-07)
(1.000003458679701 4.999168607600825e-06 -2.128480829652392e-07)
(1.000051324699767 0.0001497529050031409 -6.005148213338766e-06)
(1.000036261715046 0.0001326575268392575 -5.366743885867521e-06)
(1.000024395661191 0.000115642291401945 -4.719616503612409e-06)
(1.00001520155682 9.916828612111672e-05 -4.082056836764282e-06)
(1.000008188646029 8.34911246942482e-05 -3.464836398717618e-06)
(1.000002926076056 6.871231788774979e-05 -2.873040324859345e-06)
(0.9999990531137973 5.482249319549654e-05 -2.307629740044931e-06)
(0.9999962801463353 4.173537856746533e-05 -1.766681444562445e-06)
(0.9999943849709768 2.931325683185294e-05 -1.246324035762471e-06)
(0.9999932073804643 1.738537794154006e-05 -7.414215640556281e-07)
(0.9999926439208286 5.761034725284161e-06 -2.46065462818082e-07)
(1.000032097667097 0.0001798126805859358 -7.509344903900084e-06)
(1.000016987341221 0.0001573916978418258 -6.618706619489346e-06)
(1.000005694872158 0.0001357453656219483 -5.747894876562172e-06)
(0.99999742962061 0.0001153188557572634 -4.915944561922715e-06)
(0.9999915018282266 9.630366644176678e-05 -4.131800192273542e-06)
(0.9999873383048671 7.871470247843246e-05 -3.397330175255471e-06)
(0.9999844805424177 6.24492630238009e-05 -2.709660966679023e-06)
(0.9999825742776569 4.732962174535841e-05 -2.062874232109221e-06)
(0.9999813562252929 3.313229702758172e-05 -1.449179788957676e-06)
(0.9999806413206617 1.960728874032657e-05 -8.59691066909159e-07)
(0.999980312267034 6.490212709801738e-06 -2.849188967943067e-07)
(1.000006500030412 0.0002131970949744589 -9.430610221738973e-06)
(0.9999921944000804 0.0001840739674674084 -8.186733959747717e-06)
(0.999982322819105 0.0001568430661972055 -7.013152603652325e-06)
(0.9999757598576385 0.0001318384370089275 -5.9259722344218e-06)
(0.9999715844927505 0.000109103266762872 -4.928594696150506e-06)
(0.9999690716726386 8.84974349747172e-05 -4.01633670492786e-06)
(0.9999676680330648 6.977222020759175e-05 -3.179686125648314e-06)
(0.9999669631803392 5.261925977443482e-05 -2.406453927340989e-06)
(0.9999666626379715 3.670074402718543e-05 -1.683108764685279e-06)
(0.9999665652961466 2.166662560422436e-05 -9.955426473196038e-07)
(0.9999665464193784 7.163259720873851e-06 -3.294607880512683e-07)
(1.000096752598917 7.758122144454852e-06 -6.161941146332083e-06)
(1.000085610128171 7.154461181697851e-06 -5.839416672204253e-06)
(1.000075525430013 6.469083843940859e-06 -5.420447431615875e-06)
(1.000066576969277 5.731677743965606e-06 -4.923167549843221e-06)
(1.000058800986455 4.965565472068184e-06 -4.363918908309332e-06)
(1.000052202894929 4.187834248370028e-06 -3.756893188544546e-06)
(1.000046767839243 3.409895897299046e-06 -3.114033626248805e-06)
(1.000042469883138 2.638291368683233e-06 -2.445136342936394e-06)
(1.000039279583244 1.875603501545513e-06 -1.758096212611804e-06)
(1.000037169896963 1.121390436773476e-06 -1.059251579149468e-06)
(1.000036120481365 3.730936554644417e-07 -3.537925781400843e-07)
(1.000095662521258 2.349065233294591e-05 -6.481188636775436e-06)
(1.000084321089871 2.163382809258086e-05 -6.125078621299597e-06)
(1.000074102646575 1.953725499243958e-05 -5.671200682279353e-06)
(1.000065073450906 1.729095525265982e-05 -5.139089375050229e-06)
(1.000057257142961 1.496506312541778e-05 -4.546032946871212e-06)
(1.000050647225355 1.261045442808803e-05 -3.906772254415364e-06)
(1.000045218296363 1.02606334174424e-05 -3.233473132246972e-06)
(1.000040935590742 7.934304403868671e-06 -2.535899437401782e-06)
(1.000037762682312 5.638217600961433e-06 -1.821724385804692e-06)
(1.000035667387116 3.370032706401479e-06 -1.096931257177758e-06)
(1.000034625997273 1.121071676766533e-06 -3.662680302924583e-07)
(1.000093387274398 3.987429826884748e-05 -7.138430176323991e-06)
(1.000081656730831 3.662361052356665e-05 -6.7112068359757e-06)
(1.000071182557174 3.299253174715208e-05 -6.18410239117128e-06)
(1.000062004777411 2.913407190793114e-05 -5.579494884898193e-06)
(1.000054120485632 2.516543044412812e-05 -4.916544756604348e-06)
(1.000047498465221 2.116989027747339e-05 -4.21103246836417e-06)
(1.000042091689219 1.72006733961403e-05 -3.475491206328418e-06)
(1.000037847467322 1.328575918357132e-05 -2.719536334627755e-06)
(1.000034715311547 9.43298222970831e-06 -1.950315223320231e-06)
(1.000032652751038 5.635007485730431e-06 -1.173023351027993e-06)
(1.000031629376982 1.874003544473517e-06 -3.914519987594314e-07)
(1.000089728997047 5.7349654120803e-05 -8.172268003314661e-06)
(1.00007743932335 5.246001250391516e-05 -7.628042341491151e-06)
(1.00006661310796 4.708241876328569e-05 -6.982246239684016e-06)
(1.000057246349603 4.143646582799661e-05 -6.261600888790635e-06)
(1.00004929296133 3.568596972816946e-05 -5.487993543681732e-06)
(1.000042682468307 2.994354273241626e-05 -4.678590426502029e-06)
(1.000037334165269 2.427755151811469e-05 -3.846259855074107e-06)
(1.000033167899576 1.871999385930356e-05 -3.000168937783478e-06)
(1.000030111930615 1.327436212819141e-05 -2.146459354507326e-06)
(1.000028108408431 7.923000528073535e-06 -1.288943916187681e-06)
(1.000027116986245 2.633789083022561e-06 -4.297937738708673e-07)
(1.000084371469744 7.636332308833835e-05 -9.643378081713211e-06)
(1.000071389495474 6.946943836344367e-05 -8.922484782726605e-06)
(1.000060159010498 6.203540901326816e-05 -8.100974016100907e-06)
(1.000050608328376 5.435043093076971e-05 -7.211410469988684e-06)
(1.000042627562536 4.662229890725352e-05 -6.279071774316286e-06)
(1.000036090047011 3.898692116799008e-05 -5.32256746548377e-06)
(1.000030868140346 3.152007917427006e-05 -4.354747333734525e-06)
(1.000026844277931 2.424950189168824e-05 -3.383715163562952e-06)
(1.000023918318216 1.716615916577011e-05 -2.413836968019717e-06)
(1.000022012177993 1.023430147184151e-05 -1.446688270716072e-06)
(1.000021072587371 3.400198851362749e-06 -4.819236174873325e-07)
(1.000076856307705 9.73619324373143e-05 -1.163780658677349e-05)
(1.000063111409274 8.795666744253834e-05 -1.065979419934141e-05)
(1.000051494100527 7.80468042865992e-05 -9.588542007887884e-06)
(1.000041833239496 6.799087846936114e-05 -8.463763935919045e-06)
(1.000033929451567 5.803339748824475e-05 -7.314354012966021e-06)
(1.000027580248573 4.832263883222782e-05 -6.159888064127864e-06)
(1.000022596745993 3.892951942851319e-05 -5.012303374851685e-06)
(1.000018813979567 2.986527632943708e-05 -3.877527700211955e-06)
(1.000016096730195 2.109690527666024e-05 -2.756944967531725e-06)
(1.000014342448117 1.256010777326596e-05 -1.648662965735132e-06)
(1.000013482485917 4.169987676195836e-06 -5.485961777100656e-07)
(1.000066550930739 0.0001207756959806495 -1.427121456117026e-05)
(1.000052074367323 0.0001081839246045391 -1.292554290699391e-05)
(1.000040193221525 9.525744530785571e-05 -1.150666709036795e-05)
(1.000030594921578 8.241605399635823e-05 -1.00621077939732e-05)
(1.000022959322899 6.992535630966703e-05 -8.623703379895231e-06)
(1.000016986168951 5.792744413116848e-05 -7.210578678714953e-06)
(1.000012410777843 4.646971926111705e-05 -5.831995489498439e-06)
(1.00000901166378 3.552968363368967e-05 -4.489842951714386e-06)
(1.000006613149659 2.503509550803139e-05 -3.180692770415861e-06)
(1.000005085260393 1.487980072072371e-05 -1.897441168547816e-06)
(1.000004342491924 4.936009949268826e-06 -6.306088087591855e-07)
(1.000052609352571 0.0001469854657403545 -1.76937096004061e-05)
(1.000037593158601 0.0001303366551980422 -1.582737776339992e-05)
(1.00002572622992 0.0001137227985952438 -1.393055554260732e-05)
(1.000016501150499 9.760188081703077e-05 -1.205767146449505e-05)
(1.000009440841702 8.223130997898688e-05 -1.024113505548893e-05)
(1.000004124611525 6.771723675990822e-05 -8.49662133550758e-06)
(1.000000198985495 5.405637580716298e-05 -6.827606236668545e-06)
(0.9999973793558145 4.116911641944295e-05 -5.228987916623729e-06)
(0.9999954468472818 2.892448804668837e-05 -3.689838621969923e-06)
(0.9999942433625577 1.715834604522872e-05 -2.195428114216812e-06)
(0.999993666675244 5.686389953809651e-06 -7.286908946185902e-07)
(1.0000339292327 0.0001762648806486336 -2.209444730272309e-05)
(1.000018811700177 0.0001544709938382559 -1.949580803366664e-05)
(1.000007458447145 0.0001333699175189005 -1.694778914978082e-05)
(0.9999991034329624 0.0001134090862383004 -1.450760611643155e-05)
(0.9999930746788414 9.478763106239467e-05 -1.220284489627122e-05)
(0.9999888112347792 7.753057408509351e-05 -1.004018429324571e-05)
(0.9999858626575019 6.154606176732541e-05 -8.012190882043589e-06)
(0.9999838797760194 4.666700024570027e-05 -6.102292461590577e-06)
(0.999982602379285 3.267991284399691e-05 -4.288241492188056e-06)
(0.9999818471622994 1.934409190402418e-05 -2.544426357683653e-06)
(0.999981497755925 6.403838980138855e-06 -8.433615207442733e-07)
(1.000009113324473 0.0002086868306179371 -2.770437982488847e-05)
(0.9999946981954717 0.0001804376920170978 -2.40827124739405e-05)
(0.999984664322322 0.0001539405994378103 -2.065514312430764e-05)
(0.9999779188640431 0.0001295433859001369 -1.747148932529349e-05)
(0.9999735623295485 0.0001073075247746828 -1.454404993989091e-05)
(0.9999708830422291 8.711202434863467e-05 -1.186103795259693e-05)
(0.9999693354116556 6.87262528081627e-05 -9.396101801979072e-06)
(0.9999685132068914 5.185814371942584e-05 -7.114667777344737e-06)
(0.9999681239389402 3.618428586427135e-05 -4.977916079590419e-06)
(0.9999679672886939 2.136737319185679e-05 -2.945098806865285e-06)
(0.9999679187443681 7.065253549047716e-06 -9.747556296126586e-07)
(1.000097114864224 7.539676414444248e-06 -1.002674721022478e-05)
(1.000086118155701 6.95893954323194e-06 -9.5063453176462e-06)
(1.000076153605503 6.297407550483832e-06 -8.828114245554432e-06)
(1.00006730165417 5.583809653526666e-06 -8.021410003934747e-06)
(1.000059601229021 4.840819547007114e-06 -7.112766147565673e-06)
(1.000053060746749 4.085146660419936e-06 -6.125297033875089e-06)
(1.000047668356662 3.328048226037848e-06 -5.078521509577213e-06)
(1.000043400892246 2.576085011985365e-06 -3.988511809290113e-06)
(1.000040231277298 1.83198943817324e-06 -2.868279673273756e-06)
(1.000038134321707 1.095560737704348e-06 -1.72832602680807e-06)
(1.000037090950111 3.645412902475588e-07 -5.772968734988186e-07)
(1.000096068429154 2.282256756422066e-05 -1.054023371283023e-05)
(1.000084875886836 2.103719271262914e-05 -9.96632544663234e-06)
(1.000074778475613 1.901447210534456e-05 -9.232317278461058e-06)
(1.000065845066166 1.684152324886286e-05 -8.369818542029549e-06)
(1.000058102566028 1.458654716656539e-05 -7.406896679208801e-06)
(1.000051547975429 1.229932584829199e-05 -6.367567279527445e-06)
(1.000046159295014 1.001295242786259e-05 -5.271727619687804e-06)
(1.000041904833459 7.746247589667288e-06 -4.135418392151206e-06)
(1.000038750753024 5.506466334754348e-06 -2.971313705829593e-06)
(1.000036666873559 3.292044440274793e-06 -1.78936029605891e-06)
(1.000035630848082 1.095255808971076e-06 -5.975080370044221e-07)
(1.000093886090651 3.871758810269153e-05 -1.159664342753615e-05)
(1.000082310060241 3.559522743986535e-05 -1.090956304066342e-05)
(1.00007195793604 3.20951792668066e-05 -1.005866237231274e-05)
(1.000062873729231 2.836553319105771e-05 -9.080128940741618e-06)
(1.00005505903162 2.452033176179351e-05 -8.005070065320089e-06)
(1.000048487152011 2.064118471979441e-05 -6.859215031388133e-06)
(1.000043115278404 1.678081870960574e-05 -5.663098219328816e-06)
(1.000038894406153 1.296760734303195e-05 -4.432566901736834e-06)
(1.000035777074149 9.21042047622169e-06 -3.17949103787763e-06)
(1.000033723111181 5.503397127210897e-06 -1.912587116806319e-06)
(1.000032703649861 1.830459423480827e-06 -6.382987942697048e-07)
(1.000090381987962 5.563686488941542e-05 -1.325649901886638e-05)
(1.000078253478 5.094744681374557e-05 -1.238354062864812e-05)
(1.000067548781365 4.577076094446716e-05 -1.134345800119915e-05)
(1.000058270218662 4.031942119984427e-05 -1.017944175280957e-05)
(1.000050378217556 3.47530377651077e-05 -8.927043600337575e-06)
(1.000043808462376 2.918226185134627e-05 -7.614300819932912e-06)
(1.000038485717637 2.367521745626845e-05 -6.26237161302505e-06)
(1.000034334435225 1.82649123770011e-05 -4.886463455616713e-06)
(1.000031286542808 1.295672079250877e-05 -3.496901657740206e-06)
(1.000029286912506 7.735445609466198e-06 -2.100242307105561e-06)
(1.000028296991535 2.571781745054275e-06 -7.00378554346096e-07)
(1.00008525987202 7.399484745655779e-05 -1.561468987809604e-05)
(1.000072443956295 6.739650893427718e-05 -1.446172498882176e-05)
(1.000061329910426 6.025263932360201e-05 -1.314214887065961e-05)
(1.000051856006052 5.284352045841162e-05 -1.170860414002452e-05)
(1.000043921872271 4.537211263042956e-05 -1.020221221853524e-05)
(1.000037409331702 3.797262939534922e-05 -8.653475906339514e-06)
(1.00003219792893 3.072144434209545e-05 -7.083670877122599e-06)
(1.00002817590949 2.364846261927868e-05 -5.506430682847499e-06)
(1.000025247607381 1.674787513415195e-05 -3.92934387581213e-06)
(1.000023338172134 9.987807300858936e-06 -2.355469642334444e-06)
(1.000022396422507 3.318786125691067e-06 -7.847403179772455e-07)
(1.00007809189873 9.4200985096038e-05 -1.880530175615365e-05)
(1.000064511269866 8.522102987208862e-05 -1.724600679236111e-05)
(1.000052995792889 7.571826493043818e-05 -1.553020632094618e-05)
(1.000043389691968 6.604093297621831e-05 -1.372218439234785e-05)
(1.000035507326493 5.642897289726769e-05 -1.186911030459652e-05)
(1.000029157794087 4.703022660526503e-05 -1.000330129537737e-05)
(1.000024161550861 3.791798930468996e-05 -8.144817281406502e-06)
(1.000020360866018 2.910768427383063e-05 -6.30401609688639e-06)
(1.00001762588749 2.057158593719522e-05 -4.483879888521744e-06)
(1.000015857823498 1.225129037232148e-05 -2.682047905691884e-06)
(1.000014990398108 4.068114959931737e-06 -8.925688815553241e-07)
(1.000068290442037 0.000116642300424408 -2.300773884475969e-05)
(1.00005396123613 0.0001046546442542732 -2.086941498742157e-05)
(1.000042149813529 9.229029801948128e-05 -1.860375911022497e-05)
(1.000032566714018 7.995885122315e-05 -1.628796075493352e-05)
(1.000024911165901 6.792334837467255e-05 -1.397438071060169e-05)
(1.000018898348109 5.632840124961421e-05 -1.169507937664052e-05)
(1.000014275386598 4.522707090586729e-05 -9.466241741585658e-06)
(1.000010829506123 3.460429879853908e-05 -7.29209511756396e-06)
(1.00000839121348 2.439618196698098e-05 -5.168180419836027e-06)
(1.000006834701157 1.450528350965823e-05 -3.083995078474569e-06)
(1.000006077017175 4.8126419364562e-06 -1.025108782777977e-06)
(1.00005507423065 0.000141650271092628 -2.845350682403419e-05)
(1.000040159267462 0.0001258526093873367 -2.549838879011431e-05)
(1.000028299999857 0.0001100068435547432 -2.247933230908856e-05)
(1.000019022742323 9.456402000178325e-05 -1.948543619856289e-05)
(1.00001187687652 7.978415669522638e-05 -1.657086619950439e-05)
(1.000006461516619 6.578165492911691e-05 -1.376297171236905e-05)
(1.00000243744841 5.256443368180344e-05 -1.106935485655457e-05)
(0.9999995299770787 4.006534157510256e-05 -8.483588274876732e-06)
(0.9999975268722009 2.816615279889602e-05 -5.989615398160897e-06)
(0.9999962742834675 1.671528613848316e-05 -3.565029382039891e-06)
(0.9999956724726591 5.540683702121998e-06 -1.183486097409837e-06)
(1.000037432409653 0.0001694444864251472 -3.543231416169806e-05)
(1.000022317808593 0.0001488415297490718 -3.133335776239761e-05)
(1.000010861224144 0.0001287806141981994 -2.729171257408629e-05)
(1.000002344027159 0.0001097116872589013 -2.340268549928369e-05)
(0.9999961288008292 9.184707602547869e-05 -1.971437173501662e-05)
(0.9999916786250964 7.523012812451943e-05 -1.624112960169059e-05)
(0.9999885590732438 5.978903547420001e-05 -1.297422180690497e-05)
(0.9999864312252396 4.537659617563105e-05 -9.889713013134559e-06)
(0.9999850411580432 3.179821680323305e-05 -6.954053401370208e-06)
(0.9999842092320601 1.8830844094266e-05 -4.127872074030608e-06)
(0.9999838210473367 6.235359948583937e-06 -1.368480256276456e-06)
(1.000014094430784 0.0002000437083159108 -4.429491955155639e-05)
(0.9999994953952347 0.0001734477965286564 -3.860558647490324e-05)
(0.9999891701573669 0.0001483457746353295 -3.318850569816721e-05)
(0.9999820892041504 0.0001251085058917572 -2.813061767654535e-05)
(0.9999773953173862 0.0001038300083092045 -2.345855830509096e-05)
(0.9999744034760675 8.442417298777221e-05 -1.915954712748342e-05)
(0.99997258391646 6.669383691570591e-05 -1.519640230983833e-05)
(0.9999715391584079 5.037740075237984e-05 -1.151771319968256e-05)
(0.9999709811201194 3.517859365705808e-05 -8.064353129952732e-06)
(0.999970711426613 2.07842835518829e-05 -4.773390381537431e-06)
(0.9999706062686166 6.874230806464e-06 -1.580246545905378e-06)
(1.000097634926103 7.226296838637761e-06 -1.354336966910078e-05)
(1.000086851569457 6.678053190020792e-06 -1.284915538968265e-05)
(1.000077063398731 6.050444988290079e-06 -1.19400046097355e-05)
(1.000068353579808 5.370826043881395e-06 -1.085526444832838e-05)
(1.000060764817747 4.660930278192972e-06 -9.630654859806152e-06)
(1.000054309791161 3.93691149335913e-06 -8.297435237392176e-06)
(1.000048980938226 3.209789568619461e-06 -6.882134358324338e-06)
(1.000044759062183 2.486138122118035e-06 -5.406720180067867e-06)
(1.000041620489948 1.768889682488307e-06 -3.889093842431131e-06)
(1.000039542700577 1.058176371997501e-06 -2.343809756365314e-06)
(1.00003850844794 3.521606646669335e-07 -7.829443795106652e-07)
(1.0000966502162 2.186468839212463e-05 -1.422518043858729e-05)
(1.000085675717607 2.018049545007353e-05 -1.346091981251497e-05)
(1.000075756171585 1.82627587182668e-05 -1.247843277515074e-05)
(1.000066964065098 1.61944249248577e-05 -1.13200585233437e-05)
(1.000059330903196 1.40408912099399e-05 -1.002357528971109e-05)
(1.000052858650451 1.18503250734558e-05 -8.62147311563451e-06)
(1.000047530164853 9.6551789683374e-06 -7.140822456054593e-06)
(1.000043318162296 7.474390200699009e-06 -5.603588864709539e-06)
(1.000040192528197 5.315891545333735e-06 -4.027262066330632e-06)
(1.000038125971559 3.179190862986893e-06 -2.425693850195601e-06)
(1.000037098110906 1.057891115986224e-06 -8.100661124265559e-07)
(1.000094599091861 3.706102348576244e-05 -1.562650889885839e-05)
(1.000083249639783 3.412006622741779e-05 -1.471432294208883e-05)
(1.000073077328206 3.08059931420109e-05 -1.357835282432985e-05)
(1.0000641317123 2.725981929613052e-05 -1.226702188399516e-05)
(1.000056420717895 2.359099256134782e-05 -1.0822197175621e-05)
(1.000049924078919 1.98786305393736e-05 -9.278722850558696e-06)
(1.000044605003353 1.617464926103858e-05 -7.664603981032124e-06)
(1.00004041977476 1.250789108224888e-05 -6.001637174697742e-06)
(1.00003732529061 8.888623279860676e-06 -4.306325568886892e-06)
(1.000035284700148 5.313022545893337e-06 -2.59095977460376e-06)
(1.000034271365964 1.767459080084377e-06 -8.647859951637174e-07)
(1.000091312220376 5.318810601289272e-05 -1.782470785871565e-05)
(1.000079420687262 4.878098762808772e-05 -1.667017866775351e-05)
(1.000068895924653 4.388880774739361e-05 -1.528635639469477e-05)
(1.000059749064517 3.871411651372072e-05 -1.37309889876131e-05)
(1.000051949714439 3.341035821349735e-05 -1.205195199431044e-05)
(1.000045442307151 2.808520111212833e-05 -1.028730320179469e-05)
(1.000040159425396 2.280624412251899e-05 -8.466037974126801e-06)
(1.000036032136315 1.760777780059203e-05 -6.609259937015651e-06)
(1.000032997659661 1.249772883203512e-05 -4.731562955328004e-06)
(1.00003100480736 7.464300769483236e-06 -2.842493340329825e-06)
(1.00003001762928 2.482117504810566e-06 -9.480196883575972e-07)
(1.000086520749542 7.061634882496536e-05 -2.094060058790468e-05)
(1.000073950341516 6.443331269440279e-05 -1.942225610640482e-05)
(1.00006301045709 5.76991339677727e-05 -1.767336242631646e-05)
(1.000053653262767 5.068116176851273e-05 -1.576430440365211e-05)
(1.000045791802493 4.357515839196324e-05 -1.37505660775624e-05)
(1.000039319964829 3.651259924773962e-05 -1.167374928602156e-05)
(1.000034127580041 2.957040330301527e-05 -9.563285468990077e-06)
(1.000030111259469 2.278132237028224e-05 -7.438450222024864e-06)
(1.000027181813579 1.614393171253388e-05 -5.310434391725441e-06)
(1.000025269088821 9.631717101732876e-06 -3.18433919050697e-06)
(1.00002432494769 3.201144583894346e-06 -1.061044652108511e-06)
(1.000079838508857 8.970484600745873e-05 -2.514402356224039e-05)
(1.000066503472405 8.132013137287974e-05 -2.309996914322701e-05)
(1.000055143773727 7.239013653887057e-05 -2.083546336661975e-05)
(1.000045625088942 6.324797340480701e-05 -1.843658959699294e-05)
(1.000037781151918 5.412650869231736e-05 -1.596728384504508e-05)
(1.000031437552062 4.517240666739859e-05 -1.347204320479716e-05)
(1.000026428148519 3.646185674707822e-05 -1.097916171652327e-05)
(1.000022605664724 2.801583816517909e-05 -8.503994111572515e-06)
(1.000019848054393 1.981382457033426e-05 -6.051981097977984e-06)
(1.000018062020231 1.180556357176083e-05 -3.621333388021845e-06)
(1.000017184767594 3.921034623395231e-06 -1.20537678269945e-06)
(1.000070738809324 0.000110782912162167 -3.066066862600338e-05)
(1.000056635632048 9.963681467755168e-05 -2.787120227509855e-05)
(1.000044938299123 8.80601362488424e-05 -2.489430865327669e-05)
(1.00003538963492 7.644697176783893e-05 -2.183380806831512e-05)
(1.000027716235755 6.505568056231124e-05 -1.87613589139324e-05)
(1.000021655312883 5.403349977166023e-05 -1.572198842814106e-05)
(1.000016971011539 4.344073391572291e-05 -1.273965243594049e-05)
(1.000013463227291 3.327226959216657e-05 -9.822260368727958e-06)
(1.000010971538986 2.347558373048809e-05 -6.965945735562328e-06)
(1.000009376298874 1.396528419166138e-05 -4.158573622084483e-06)
(1.000008598349492 4.634702832863705e-06 -1.382593889607128e-06)
(1.000058527425453 0.0001341171555918349 -3.777930803166184e-05)
(1.000043780696492 0.0001194990001809949 -3.394431087439931e-05)
(1.000031953930818 0.0001047245610780295 -2.999620273790441e-05)
(1.000022620633255 9.023305876076485e-05 -2.605600327627409e-05)
(1.000015367679921 7.628631927586285e-05 -2.219937566022605e-05)
(1.000009822605416 6.300882759808608e-05 -1.846664272726473e-05)
(1.00000566691834 5.042311074001356e-05 -1.487171974043357e-05)
(1.000002640514539 3.847872645591928e-05 -1.140948520123129e-05)
(1.000000541068992 2.707483388762226e-05 -8.061560834557768e-06)
(0.9999992211393333 1.607718772830925e-05 -4.800702425714085e-06)
(0.9999985847805671 5.330755213391606e-06 -1.594098848866357e-06)
(1.000042315490624 0.0001598577031826734 -4.685759034483912e-05)
(1.000027243037537 0.0001408956819502158 -4.15676750812981e-05)
(1.000015672357704 0.0001222782736509821 -3.630866787565744e-05)
(1.000006951393117 0.0001044551482796822 -3.12128361857532e-05)
(1.000000492004592 8.765394995302624e-05 -2.635083755718899e-05)
(0.9999957921043479 7.194126383352075e-05 -2.174847115748981e-05)
(0.999992440910397 5.727161976180547e-05 -1.740020927343249e-05)
(0.9999901149504398 4.352451371625704e-05 -1.32794559141075e-05)
(0.999988570000258 3.053107733595988e-05 -9.345961143566691e-06)
(0.9999876322201995 1.809257515458305e-05 -5.550985959502374e-06)
(0.9999871904065526 5.992908515624962e-06 -1.840818216583381e-06)
(1.000020999849278 0.0001879560598203904 -5.832310762179414e-05)
(1.000006201266962 0.0001636240966766805 -5.102423222093855e-05)
(0.9999955133971486 0.0001404475896928705 -4.401268594285925e-05)
(0.9999879963095573 0.0001188228435871988 -3.741579163946116e-05)
(0.9999828537954749 9.888402282499725e-05 -3.128136365837537e-05)
(0.9999794402752249 8.058985994435589e-05 -2.560386925555126e-05)
(0.9999772501682236 6.378728785840824e-05 -2.034369387416715e-05)
(0.9999758999721129 4.825556482834794e-05 -1.544052987221669e-05)
(0.9999751091304306 3.373532102223974e-05 -1.082220419083408e-05)
(0.9999746829705133 1.994665137899538e-05 -6.410189547667603e-06)
(0.9999744992968972 6.599681280492541e-06 -2.122838162423378e-06)
(1.000108722334736 8.367491895573432e-06 -2.149092901924905e-06)
(1.000108820821435 8.244538839745101e-06 -6.368768936514079e-06)
(1.000108005189367 2.499915260989099e-05 -6.718399417506026e-06)
(1.000109010906031 8.005374611461282e-06 -1.035824742914376e-05)
(1.000108232915966 2.426596628483611e-05 -1.09199619423342e-05)
(1.000106584216886 4.128166863174039e-05 -1.207959369331494e-05)
(1.000109279628451 7.662763093454515e-06 -1.398118257774018e-05)
(1.000108554588497 2.321632969248046e-05 -1.472578744943224e-05)
(1.000107020032483 3.945806205146932e-05 -1.626127743823354e-05)
(1.000104498989493 5.685932994891791e-05 -1.868332988055404e-05)
(1.000107887137019 2.537623054570928e-05 -2.267806196544534e-06)
(1.000106114877481 4.321363162900001e-05 -2.513168149587194e-06)