/*--------------------------------*- C++ -*----------------------------------*\
  =========                 |
  \\      /  F ield         | OpenFOAM: The Open Source CFD Toolbox
   \\    /   O peration     | Website:  https://openfoam.org
    \\  /    A nd           | Version:  7
     \\/     M anipulation  |
\*---------------------------------------------------------------------------*/
FoamFile
{
    version     2.0;
    format      ascii;
    class       volVectorField;
    location    "0";
    object      grad(Phi);
}
// * * * * * * * * * * * * * * * * * * * * * * * * * * * * * * * * * * * * * //

dimensions      [0 1 -1 0 0 0 0];

internalField   nonuniform List<vector> 
12683
(
(-0.7418024993901862 -0.1575843655065322 0.7921967823667878)
(-0.7444459208419952 -0.1469856415814341 0.7964404740835844)
(-0.7099413589188751 -0.1568407890314723 0.7283665246208694)
(-0.7341566481755299 -0.05065774249063587 0.7706991902739543)
(-0.731014909158841 -0.06988824385475492 0.7665899519018367)
(-0.7259021015549327 -0.09076120138574525 0.7587477731372139)
(-0.7299453827998564 -0.06858950003403304 0.7642521960079708)
(-0.7117590102246958 -0.1523672931124772 0.7342269697158483)
(-0.7179055058770626 -0.118886081624125 0.7440600504568019)
(-0.7245672612980759 -0.09063768618619403 0.7556103506506985)
(-0.7195104167851331 -0.1172315190205903 0.7482923814686182)
(-0.7349807479420173 -0.05275142087797644 0.7724151366259857)
(-0.7373223582701357 -0.0355019659304872 0.775395023387212)
(-0.7395448417776557 -0.02218869866214056 0.7786247639424508)
(-0.7379222175415003 -0.03813144212854823 0.77660242493269)
(-0.7399392613678776 -0.02516140262226716 0.7793924096890411)
(-0.7409017522142837 -0.01000762739958651 0.7805407382782102)
(-0.7414339287008653 0.001618370238405365 0.7811708425062149)
(-0.7411065305956414 -0.01316845220538922 0.7808842455223138)
(-0.2905587284849061 -0.1882270463344805 0.6532817444407941)
(-0.3000984798861613 -0.09627981132045992 0.6757963265456436)
(-0.2993914137967166 -0.1029200764735515 0.6741457991293105)
(-0.303019412000285 -0.06786660905431394 0.6825929342529725)
(-0.3034843106502431 -0.06294931482578633 0.6836726821820408)
(-0.2978384822971071 -0.1174823285890665 0.6705092486848629)
(-0.2986399348337526 -0.1099727166787335 0.6723863204414224)
(-0.2929733854846541 -0.1639270957231578 0.6590349062542039)
(-0.2918022556073843 -0.175555256352994 0.6562534820057242)
(-0.3058374872772778 -0.03330157280854606 0.6891316078014481)
(-0.3060582066965957 -0.02955651045023728 0.6896426168848168)
(-0.3043105525602596 -0.05371656553488864 0.6855912745694612)
(-0.3039138267455148 -0.05823916911962373 0.6846707343496535)
(-0.3068933657612106 -0.005056492198806261 0.691554654049635)
(-0.3069254938528675 -0.00169164879677782 0.6916208330704203)
(-0.3064159775911153 -0.02229828982566744 0.6904717825817337)
(-0.3062508834065348 -0.02589157961789334 0.6900892546350914)
(-0.7423897403073577 -0.1541556119320675 0.8342139342699653)
(-0.6471511690708408 -0.1619056350097398 0.8196173228750654)
(-0.6770806039455686 -0.05415880593198613 0.8586343001099133)
(-0.6760084680586599 -0.05837856052239065 0.8572502518069701)
(-0.673617563923872 -0.06741606043083809 0.8541561762920838)
(-0.6748573999349888 -0.06279171989727611 0.8557581152577265)
(-0.7457768016956999 -0.1437744689471165 0.8381542675854613)
(-0.6500758154158552 -0.1510039900917621 0.8234779886945992)
(-0.7489609711025007 -0.1342497195510441 0.8418290665705608)
(-0.6528257451800484 -0.1410015535190871 0.8270742107006938)
(-0.6577958093401615 -0.1232451636024831 0.8335786423013258)
(-0.6553864843926598 -0.1317763033647049 0.8304383890930321)
(-0.6780717471374014 -0.05011256238207672 0.8599178431995023)
(-0.6789899327572478 -0.04622504204940805 0.86110229436237)
(-0.6806092839823286 -0.03886349122912865 0.8631939328705356)
(-0.6798336058206599 -0.04247954229360082 0.8621939422525573)
(-0.6850609318385781 -0.001448562416740726 0.8689142109836002)
(-0.6850096654148059 -0.004351151313554811 0.8688524527936697)
(-0.6847402021655505 -0.01019844780320636 0.8685150753220772)
(-0.6849030565450912 -0.007265374714146624 0.8687204134108114)
(-0.5544319441431419 -0.1690958215844676 0.7930491769953749)
(-0.480950124304377 -0.1756735865713344 0.744222339076381)
(-0.5714110973409894 -0.171611415964656 0.7286581829362621)
(-0.4389237009017967 -0.1813885094830067 0.6648380655871688)
(-0.351860018615147 -0.1849929769117357 0.6672554964033502)
(-0.4179155588025194 -0.1794134240512241 0.7410486970448396)
(-0.5902339180274493 -0.06661931581367465 0.7651978133805598)
(-0.576846508265905 -0.07041371349145509 0.8264730582922097)
(-0.4986652837164919 -0.07316667132827338 0.776224445712233)
(-0.5779007177652014 -0.06558326950558795 0.8280236381685584)
(-0.4995255877610314 -0.06814685149554753 0.7777003109712954)
(-0.589271322886568 -0.07152377043428533 0.7636245522404954)
(-0.5910322953905036 -0.0619375752324154 0.7666551235415514)
(-0.5797900718121052 -0.05656564046262698 0.8308070878758399)
(-0.5010615989485685 -0.05877509656962199 0.7803500999566104)
(-0.5788783427808112 -0.06097350839394567 0.829467715524395)
(-0.5003159817077639 -0.06335602186471391 0.7790772988545593)
(-0.5918708719350674 -0.05746144670525271 0.768008789777321)
(-0.3007645562033406 -0.09000559407442474 0.6773493984770269)
(-0.3013900232696803 -0.0840564776427998 0.6788043041103738)
(-0.4339018668419913 -0.08009472746699239 0.7703008760368849)
(-0.4329920836921954 -0.08576589164785073 0.7686504535161047)
(-0.3619692219207507 -0.0946317812321734 0.6911254553299603)
(-0.4482764470945771 -0.09922869452206787 0.6896585922942589)
(-0.4491121080864156 -0.09282280411476961 0.6915425799600975)
(-0.3611955423515722 -0.101162629769065 0.6893912494584546)
(-0.4309827419750535 -0.09808992900509793 0.7649970844057449)
(-0.4320206790736373 -0.09175327011474778 0.7668831957129817)
(-0.3626944311499553 -0.0884606574233731 0.6927552628111228)
(-0.4506223904941065 -0.0810341299423359 0.6949687722782387)
(-0.3633801668165185 -0.08261289995775788 0.6942762797979664)
(-0.4498758988123445 -0.08676888639657913 0.6933284640212722)
(-0.6677210182561329 -0.08851605304477923 0.8465108586902201)
(-0.6693490888022966 -0.08279706404840817 0.8486195233110116)
(-0.6722916754577852 -0.07227579446459587 0.8524353240226614)
(-0.6708676752438445 -0.07739276991367523 0.8505934418105698)
(-0.3025164085339518 -0.07301001034779811 0.6814235901555845)
(-0.301974002062087 -0.07839934561719741 0.6801629842938594)
(-0.4347509118957218 -0.07470815795280415 0.7718431366688869)
(-0.4355431037619822 -0.06958067354812228 0.7732785803544536)
(-0.3651749428109278 -0.06671366307884852 0.6982438761496436)
(-0.4531382435587706 -0.06071450007821933 0.700486842636633)
(-0.4525617302777448 -0.06544834750026875 0.699270321218122)
(-0.3656936843393032 -0.06188452766593779 0.6993758395636775)
(-0.3646191171110114 -0.0717640489271331 0.6970175638038972)
(-0.4513028761791317 -0.07558569593510386 0.696518267128746)
(-0.4519626048625203 -0.07039886046554536 0.6979367201499874)
(-0.3640193534425789 -0.07705586270514261 0.6956986432881017)
(-0.4369633922722653 -0.06000849012399236 0.7758531641025348)
(-0.4362793904369646 -0.06468758349691404 0.7746146881178091)
(-0.5872676926219393 -0.08210330753977663 0.7601170541624155)
(-0.575720574175259 -0.07548966658430681 0.8248071673689356)
(-0.4977579244132339 -0.07844118348382498 0.7746337107933791)
(-0.5883628722778982 -0.07667803099006663 0.7619338157570558)
(-0.4967735957082901 -0.08399421777522009 0.7729349578615344)
(-0.5745103498589644 -0.08083432968728177 0.8230243775657377)
(-0.5862432522641801 -0.08783335118048542 0.7581651050451579)
(-0.494621092155858 -0.09606309638321775 0.7691637100872343)
(-0.5718390200401436 -0.09245175546193966 0.8190730348061476)
(-0.4957400049399232 -0.08985802783687755 0.7711089551583944)
(-0.5732214693195571 -0.08647862087779561 0.8211134571791964)
(-0.5850061214339745 -0.09389501401009728 0.7560754605497098)
(-0.2969838140353375 -0.1254973462768475 0.6685023969343949)
(-0.2960736267552316 -0.1340745002997315 0.6663633409521834)
(-0.4260943143152271 -0.1277899265847178 0.756080416567495)
(-0.4274372960366892 -0.1196138458059391 0.7585313865983678)
(-0.3595092439448785 -0.1154756428320559 0.6855573125626574)
(-0.447427527061462 -0.1060286893968092 0.6876075692188265)
(-0.3603799300926273 -0.1080960889310252 0.687535124928384)
(-0.4464989523768038 -0.1132635954750191 0.685444351097225)
(-0.4298765197699243 -0.1048162490288728 0.7629805369236268)
(-0.4286954633969472 -0.1119738673048842 0.7608301164131573)
(-0.3585920523266581 -0.1233522191859325 0.6834370556631593)
(-0.4445382853707997 -0.1292482639390582 0.6805957697192442)
(-0.3576142538039305 -0.1317814479831715 0.6811781686504154)
(-0.4455625625022612 -0.1209859647707042 0.6830845739251826)
(-0.6659880186541115 -0.09458776716658941 0.8442540589253529)
(-0.6641315683848267 -0.1010471006863756 0.8418456173368809)
(-0.6600430765449237 -0.1153208859458018 0.8365202444359422)
(-0.6621576459932608 -0.1079430200985758 0.8392691898913236)
(-0.5765103302770641 -0.1397237550723493 0.7398962028813993)
(-0.5634282227422979 -0.1287214261545538 0.8065589542630187)
(-0.4879385953845567 -0.1337389746633891 0.7571957363829941)
(-0.5613896833761518 -0.1376312041546398 0.803522920657564)
(-0.4863244114817795 -0.142993656467662 0.7542895042826538)
(-0.5782375058548698 -0.1306914351304988 0.7430796776916115)
(-0.5749747514438779 -0.1494912548270905 0.7364186731069347)
(-0.5569015062202535 -0.1577114095100894 0.7967890803636654)
(-0.4828307206028756 -0.1638499011765462 0.7478245844118546)
(-0.559224361726143 -0.1472648754488607 0.8002652666238171)
(-0.5730662847111128 -0.1600754667389644 0.7327279074939004)
(-0.4846484810359902 -0.1529995756864663 0.7511602401787532)
(-0.294073016355977 -0.1532058740279738 0.6616418248731472)
(-0.2951056568626491 -0.1432850589600302 0.6640798280400699)
(-0.4246638960837665 -0.1365694449442774 0.7534595718237348)
(-0.4231365741554958 -0.1460242637584864 0.7506638710641627)
(-0.354347739068805 -0.1611148289379126 0.6733995640788473)
(-0.4400878812673515 -0.1691911083168329 0.6685161203748532)
(-0.3531293853422131 -0.1725420076487248 0.6704394846376112)
(-0.4412939757471723 -0.1579960710348364 0.6718486447453087)
(-0.4197701934539115 -0.1673325431050135 0.7444756847217979)
(-0.4215091866012 -0.1562455375714686 0.7476712909396205)
(-0.3554934846876177 -0.1505794744788176 0.6761734314823303)
(-0.4435155327714876 -0.1381200090051095 0.6778742832031112)
(-0.3565875493847905 -0.140832304727573 0.6787563595370741)
(-0.4423964555839584 -0.1476713692672925 0.6750018112034881)
(-0.5811960325672464 -0.1144826670374961 0.748834717946118)
(-0.5653305732681846 -0.1204461358263587 0.8094066565170135)
(-0.489428961109966 -0.1251432873052173 0.7599255501604334)
(-0.4908603174849676 -0.1171391366047021 0.7624654181773217)
(-0.5671221164145586 -0.1127407076577139 0.812064940214574)
(-0.5796428182616046 -0.1222974910698312 0.746074381160605)
(-0.5824700813875355 -0.1071752780074582 0.7514263186440141)
(-0.4934500216887686 -0.1026502381834301 0.767075135323999)
(-0.5703693400667204 -0.09879282780376733 0.8168884900294858)
(-0.583859697452677 -0.1003309229909967 0.7538268368869763)
(-0.4921830030362188 -0.1096582510386528 0.764852314347557)
(-0.5687946477835106 -0.1055390735428665 0.8145588147558989)
(-0.5938834656215359 -0.04507116565731472 0.7714657938622737)
(-0.5827888583780598 -0.04059021645899799 0.8352177260487794)
(-0.5035067387030591 -0.04217455968560873 0.7845406545235525)
(-0.5821291405548923 -0.04436679432406467 0.8342504208974983)
(-0.5944970305178942 -0.0412355556648198 0.7724375096749625)
(-0.5029653402217229 -0.04609840877289004 0.7836236538518193)
(-0.5932876270274055 -0.04904480605242051 0.7704100113720455)
(-0.580631821238487 -0.0523392504332116 0.8320487923717957)
(-0.5017437442975685 -0.05438284355546028 0.7815322772507783)
(-0.5814126533825332 -0.04827870425578347 0.8331947045517647)
(-0.5925651145122164 -0.05316860551535869 0.769255706778309)
(-0.5023834456761284 -0.05016331555883361 0.7826197235929925)
(-0.6830528163543831 -0.02543736555844588 0.8663469535254767)
(-0.6825360292590446 -0.02866064179850525 0.8656816055595628)
(-0.6813157972582377 -0.03536255490510834 0.8641074169447018)
(-0.6819583410697715 -0.03196580833036587 0.8649352751106768)
(-0.5955105667557719 -0.03391895543945495 0.7741204646782731)
(-0.5833889502473867 -0.03693415134827269 0.8361010141577155)
(-0.5039951330953339 -0.03837615056612784 0.785379866241947)
(-0.5949997184749182 -0.03752167842617923 0.7733177675800863)
(-0.5839356487853474 -0.03338700415330641 0.8369018880901369)
(-0.504444712569857 -0.03469138376957649 0.7861386497239091)
(-0.595924931375758 -0.03041281315398985 0.7748375457749879)
(-0.5848666776914476 -0.02656966770476199 0.838267593829661)
(-0.5052088265196296 -0.02760988677541349 0.7874346577377049)
(-0.5844265936256002 -0.02993563442348306 0.8376236732245392)
(-0.5048455527278763 -0.03110620301846238 0.7868243403848392)
(-0.5963383717786425 -0.02699370399460026 0.7754816184314641)
(-0.3055893249267616 -0.03713878115981234 0.6885567010224644)
(-0.3053144460610405 -0.04108414747715579 0.6879196100400132)
(-0.4396637796298754 -0.03917881612780421 0.780743211932971)
(-0.4400729590374259 -0.03541703339876901 0.7814826584391519)
(-0.3683401590357108 -0.03274696123536092 0.7051047543840563)
(-0.4563665456942129 -0.02852243810295909 0.707239313659957)
(-0.4560769762876383 -0.0321331526558238 0.7066650914273436)
(-0.3685942337337289 -0.02906731875576734 0.7056417913970362)
(-0.3680582766741662 -0.03651931763473771 0.7045006829572655)
(-0.4554088968885663 -0.03964073953101348 0.7052956088751553)
(-0.4557634217178944 -0.03583521920594828 0.7060123461785331)
(-0.3677456264392477 -0.04039784779674864 0.7038314371533844)
(-0.4407716867466133 -0.02818863121338799 0.782745529092825)
(-0.4404417008278436 -0.03175765780966751 0.7821498038381731)
(-0.3046764468936373 -0.04936046407020715 0.6864400293706695)
(-0.3050107540002434 -0.04515385003709443 0.6872150183448308)
(-0.4392133833283526 -0.04305657623971125 0.7799276209788104)
(-0.4387195023371786 -0.04706325865040514 0.7790345391395513)
(-0.3666174528931119 -0.05281133743245861 0.7013890186698654)
(-0.4536597057280407 -0.05617632338002038 0.7016255840995973)
(-0.3661724050947754 -0.05725652170826034 0.7004242033196002)
(-0.454157830867975 -0.05181681232754128 0.7026605692865037)
(-0.4375962817631771 -0.0555230062154177 0.7770007864636616)
(-0.4381813201242111 -0.05121378155288733 0.7780593663182824)
(-0.3670263373205368 -0.04853011144054398 0.7022787157265631)
(-0.4550302342505277 -0.04356399402143736 0.7044936982992452)
(-0.4546060323980416 -0.04761756473032421 0.7036240286963096)
(-0.3674031245184994 -0.04439711245687335 0.703090788824648)
(-0.6835079997938498 -0.02228462377824457 0.8669343482122362)
(-0.6839042602616136 -0.01919378444468699 0.8674438299127646)
(-0.6845197150675991 -0.01315922547724821 0.8682339984405392)
(-0.6842410445175116 -0.01615449152164499 0.867877246437714)
(-0.5972386196379112 -0.01713889674913555 0.7769455725790826)
(-0.5861156817642155 -0.01374478031216345 0.8400911235616707)
(-0.5062459652829916 -0.01428267457743077 0.7891661102432505)
(-0.5858782971108709 -0.01687402929605791 0.8397474202186642)
(-0.5974676974582088 -0.01395585006940586 0.7772839838477309)
(-0.5060457170461239 -0.01753559069208193 0.7888405401784381)
(-0.5969886967834178 -0.02036738983183367 0.7765353922345869)
(-0.5852538926733265 -0.02327717077856318 0.8388358127137474)
(-0.5055268170412272 -0.02418945189886469 0.7879748297884924)
(-0.5966686865020091 -0.02364810101715122 0.7760439393927721)
(-0.5855916716202438 -0.02004888929336622 0.8393288410017247)
(-0.5058076128444828 -0.0208352764929957 0.7884425416379208)
(-0.5977804389469099 -0.00769071627882969 0.777720035515118)
(-0.5863028897529367 -0.01065150231062256 0.8403597559568763)
(-0.5064058301901307 -0.01106668095784386 0.7894200222304196)
(-0.5864410210411339 -0.007587319097103183 0.8405538664589209)
(-0.597640483971058 -0.01080770302968339 0.777537880151195)
(-0.5065274719812897 -0.007881294190626541 0.7896019375427668)
(-0.5978754299122631 -0.004597385581260102 0.7778215763963742)
(-0.5865738809871748 -0.001511450566516146 0.8407304975078214)
(-0.5066527964552471 -0.001567457781091161 0.7897635043172497)
(-0.586530956099379 -0.004543134486988217 0.8406757548030159)
(-0.5066104446302832 -0.00471725034627195 0.7897144652477192)
(-0.5979243527375872 -0.001522725417395616 0.7778640602605)
(-0.3068394396206519 -0.008435885561066519 0.6914387486925331)
(-0.3067661937506159 -0.01183942900881464 0.6912755013004935)
(-0.4418574737330022 -0.01129823931716006 0.7846990280252882)
(-0.4419643364214124 -0.008045547855063064 0.7848872684474328)
(-0.3695918009282045 -0.004962686887053493 0.7076282603967452)
(-0.4575447098645368 -0.001604331290060047 0.7093810631400489)
(-0.4575098938016587 -0.004852338366754323 0.7093426664134184)
(-0.3696223577717806 -0.001649536255662015 0.7076774002241183)
(-0.3695318428783012 -0.008292309975311029 0.7075259521137852)
(-0.457338256963136 -0.01141723719554762 0.7090878520826585)
(-0.4574395437156553 -0.00812148472002135 0.7092481835830892)
(-0.3694450112289489 -0.01164621920934594 0.7073665660407569)
(-0.4420711197805066 -0.001599563399009343 0.7850693091154469)
(-0.4420355830198498 -0.004815303702993603 0.785010141046047)
(-0.3065575927526227 -0.01876360920107073 0.6907976728441563)
(-0.306672958886071 -0.01527879588670213 0.6910631208352772)
(-0.441714474631771 -0.01458203251613595 0.7844439756589976)
(-0.4415346051889203 -0.01790409009638023 0.784121418841255)
(-0.3690175464064458 -0.02193629840485748 0.7065211583498336)
(-0.4566192042661288 -0.02498968767129336 0.707750180752183)
(-0.3688192004931806 -0.02546746255477466 0.7061142755320226)
(-0.4568472949843273 -0.02152375071725205 0.7081865128991385)
(-0.4410632989893743 -0.02469739716118626 0.7832723863735256)
(-0.4413176070267932 -0.02127299354854955 0.7837306312081384)
(-0.3691888904320755 -0.0184612166325961 0.7068665187233376)
(-0.4572062946787485 -0.01474579681165507 0.7088573990765425)
(-0.4570411109691712 -0.01811193976943113 0.7085584953106612)
(-0.3693311677165194 -0.01503345893405628 0.7071473033460458)
(-0.6459719154225971 -0.1798904676263612 0.7086471166081686)
(-0.6777724112087707 -0.1624328737089308 0.6971009722052792)
(-0.6534400398252099 -0.164893321191209 0.7690563898126274)
(-0.7074085910743472 -0.1747616070494011 0.725323306786496)
(-0.6509387347384703 -0.1770067517592661 0.7647512003235959)
(-0.6478847566798499 -0.1657914367536026 0.7131162345856251)
(-0.6771984982080412 -0.173002113343359 0.6945433491922363)
(-0.6671366652771451 -0.0609981274580202 0.7531034719418714)
(-0.6979844781848138 -0.0555508486826161 0.7391165845057577)
(-0.733133072336936 -0.06093982164207287 0.7697272031257204)
(-0.6787651082153909 -0.05520132800551496 0.8097683906137386)
(-0.6778154053610482 -0.05950092070826397 0.808407266735915)
(-0.6976146838475606 -0.05784126282498776 0.7384042315243937)
(-0.6678673619755896 -0.05540101438189236 0.7544701353423662)
(-0.666178763283949 -0.06429813927903878 0.7515636802737148)
(-0.6756940313026972 -0.06870939779663403 0.8052646544058929)
(-0.7321889761295597 -0.05920532031989528 0.7677177700734091)
(-0.6958324680862834 -0.06693917336792153 0.7353385369461839)
(-0.6767865227554971 -0.06399817548641669 0.806845073166648)
(-0.6962497380507133 -0.06420044724393308 0.7361718445689098)
(-0.6653383889437641 -0.07034767309051593 0.749973668393475)
(-0.6621125808261189 -0.08488529956573124 0.7442665449118292)
(-0.6915785046345866 -0.08814055373092543 0.727653467088814)
(-0.7274101248484552 -0.07899172384685593 0.7602419033549542)
(-0.6705258440607806 -0.09020320434598197 0.7974471391167495)
(-0.6920898446684804 -0.08419605412109545 0.728780723485432)
(-0.6719398580132071 -0.08437898125589451 0.7995441560001555)
(-0.6610257296603729 -0.09215605488069402 0.742146473174044)
(-0.6633045929859424 -0.08066318282495805 0.7463430029623651)
(-0.6745187750352184 -0.0736610978608026 0.8034548748795554)
(-0.6942871507491372 -0.07368864936224227 0.7327469536997117)
(-0.7286102197600197 -0.07976112373836265 0.7629516520785015)
(-0.6938223284055106 -0.07697133112987126 0.7317767991875515)
(-0.6642632706861747 -0.07406357893024033 0.7481820473209458)
(-0.6732720831200236 -0.07887330062677322 0.8016310543092653)
(-0.6511273306080412 -0.1445015728553675 0.7214014705637783)
(-0.6803725528970437 -0.1504694845030121 0.7034259922462848)
(-0.714077758911274 -0.1363425310291773 0.7368413279519944)
(-0.6557310491807973 -0.1538039074330704 0.7733577180117821)
(-0.6579803451358711 -0.14363195997888 0.7770476625964895)
(-0.6809890230172548 -0.141910332043732 0.7055542143559917)
(-0.6494041812784561 -0.1565075485858345 0.7176018052296834)
(-0.6526684336987336 -0.1367515827420905 0.7251957131358139)
(-0.6620743954948288 -0.1255635328336325 0.7839235062140203)
(-0.7158038663769384 -0.1334507208061239 0.7417976280179496)
(-0.6840811375078942 -0.1243857733295574 0.7127362551937894)
(-0.6600611647800373 -0.1342435143771606 0.7807362653423885)
(-0.6834653431812161 -0.1313785834992702 0.7109406059433869)
(-0.6542125749284217 -0.1263635652481861 0.7284572444724231)
(-0.6584940874173536 -0.1050919446400923 0.7373008452824428)
(-0.6896536631721312 -0.09594661439715323 0.7241955503970634)
(-0.722873705903016 -0.1031429676187244 0.7538964616568863)
(-0.6690249077497249 -0.09638768990137282 0.795046010530821)
(-0.6890988611643903 -0.1007005567162403 0.7228847385717555)
(-0.6597204360459462 -0.09699750802404253 0.73974292331046)
(-0.6674284984477342 -0.1029642811714537 0.7926381791825016)
(-0.6570848342075934 -0.1106964549652233 0.7345150795209084)
(-0.6639505368509883 -0.1174961933205967 0.7871088899853143)
(-0.7214022901775803 -0.1038130380569284 0.7502591970800792)
(-0.6863883651506327 -0.1149738691800918 0.7173617517465565)
(-0.6869800253837646 -0.1092225564263147 0.7188912190336062)
(-0.6657462358596368 -0.1099867001002077 0.7898754676730926)
(-0.6557063419713247 -0.1198098703041319 0.7316980130442403)
(-0.6693382733913058 -0.04721830147337896 0.7569490627204652)
(-0.6991764565815164 -0.04951273720287742 0.7410261747235275)
(-0.7358632511458887 -0.04279808531039963 0.7732451560083484)
(-0.6796571408960643 -0.05107762759530744 0.8111070354752818)
(-0.6804740033928085 -0.04711622423915845 0.8122687321095264)
(-0.6994994298852213 -0.04759145221126356 0.7416302977724469)
(-0.6687096840713366 -0.05244343645123679 0.7557846450316604)
(-0.6700677212314942 -0.04454194745525481 0.7580598522533502)
(-0.6819302391694648 -0.03961386561832744 0.8143821467219867)
(-0.7365727052958001 -0.04518696194233695 0.7746956374308561)
(-0.7008028914585913 -0.04019774716278592 0.7437525716056153)
(-0.6812376502440732 -0.0432988324840571 0.8134035526228567)
(-0.7005258267344991 -0.04181691583111855 0.7432465147761723)
(-0.6706007443408816 -0.03962101552989234 0.7590392610072)
(-0.6721772279586066 -0.03023469992907664 0.7615227473415538)
(-0.7028063441154327 -0.02669401272400731 0.7469402148643333)
(-0.7390410038719467 -0.03148553572336617 0.7781618516721474)
(-0.6841407625008791 -0.02592990565623476 0.8175582745974997)
(-0.7026183257550817 -0.02787660319158207 0.7466090577610283)
(-0.6836763432043196 -0.02921507085342369 0.8169095121274547)
(-0.6725345785997217 -0.02575374123101984 0.7621697372206744)
(-0.6716635206782796 -0.03249860638851724 0.7607717111942185)
(-0.682572871119696 -0.03604561204415984 0.8153291375253564)
(-0.7016706759576746 -0.03463814916194601 0.7450988876458882)
(-0.7385460495824072 -0.02866312059293659 0.7771802271693856)
(-0.7019027878704261 -0.03326306610275102 0.7455147642336039)
(-0.6712205441160392 -0.03717369735137875 0.759963568390473)
(-0.6831484232964231 -0.03258397740575972 0.8161377936265454)
(-0.6732207987488021 -0.01929800915151279 0.763246678687569)
(-0.7033752493924289 -0.02144440921970777 0.7477938935241536)
(-0.740327671095235 -0.01599557818429673 0.7797439857381718)
(-0.6845591814904965 -0.02271580362618696 0.8181635214426131)
(-0.7035199559842199 -0.02040735474872988 0.7480421468008087)
(-0.6729461035547402 -0.0236321535628666 0.7627559001523736)
(-0.6849169536211015 -0.01956475214257474 0.818658640010587)
(-0.6735349833555441 -0.01728121850351367 0.7636687392494707)
(-0.6854845439338256 -0.01340973528605147 0.8194438669683992)
(-0.740625728644416 -0.0190796190283723 0.7803017397254174)
(-0.7040494627057718 -0.014327865114214 0.748818139105299)
(-0.7039470862782624 -0.01526321980635118 0.7486570726231945)
(-0.6852301366338412 -0.01646494265417288 0.8191012191743786)
(-0.6737281358138734 -0.01304996391929436 0.764000072662594)
(-0.6860130088703327 -0.001469893452695979 0.820080574921601)
(-0.6742240775354489 -0.0009211264786068695 0.7645297668787264)
(-0.6741896995350224 -0.005051960330736437 0.7645012389741462)
(-0.7045703310821061 -0.002503544669818287 0.7493906798192367)
(-0.7413801758285562 -0.007366203797669787 0.7811456541656502)
(-0.6859604825514554 -0.004425858090881284 0.8200308339696043)
(-0.7045499097471429 -0.00336592771800442 0.7493905969236052)
(-0.6740625558965464 -0.006940666051956487 0.7644165712822251)
(-0.6856961803833217 -0.01038862052922798 0.8197222735431771)
(-0.7412711651045991 -0.004155717491718221 0.7810081679955312)
(-0.7043385455809155 -0.009261256566985536 0.7491865672017706)
(-0.6858497421772898 -0.007396782365236715 0.8199116156856439)
(-0.704399775686348 -0.008383539284768371 0.7492555565477792)
(-0.6739504945685585 -0.01110687380589796 0.764249904278864)
(-0.2892309484719843 -0.2020979099161694 0.6501009542322165)
(-0.4768016881028387 -0.2028275879523785 0.7361985009563204)
(-0.4789060369285456 -0.1886038032132743 0.7403736111477771)
(-0.2878163893398236 -0.2173584305332749 0.6466868164296105)
(-0.4138092523542259 -0.2071684924759105 0.7334366265766437)
(-0.3505116749483704 -0.1986166799093175 0.6638473617264036)
(-0.4376512954853559 -0.1947268635914022 0.6609383981700573)
(-0.349113707709972 -0.2136021381832997 0.6601632652247224)
(-0.4364634828154722 -0.2093968053358934 0.6565975473154296)
(-0.4159303546872439 -0.1926300786035847 0.7373815474300764)
(-0.03677791334332298 -0.193660866932399 0.2286408908957793)
(-0.08350410964198413 -0.1914265122957216 0.2403786525627991)
(-0.03641216136587599 -0.1458584568007409 0.2326106994125083)
(-0.03635798222304749 -0.1117671623843926 0.2357223613178168)
(-0.07708614522243268 -0.1462796356034173 0.2453479495551802)
(-0.03643885770772589 -0.06506669141100191 0.2392232409577515)
(-0.03638119770955606 -0.07949871825550932 0.2379302759730368)
(-0.07234306855938724 -0.1127953118553054 0.2494534230783103)
(-0.04301177214447419 -0.0854730739847126 0.2550363287262126)
(-0.06573813497008986 -0.06552141708841912 0.2538621603696496)
(-0.01570852493457303 -0.0213955357364943 0.09660969950601457)
(-0.01328513422775249 -0.02841385693516688 0.06137705531256873)
(-0.01141481699948401 -0.0295438798484115 0.01331516597212372)
(-0.01327578483671189 -0.02920817913295096 0.06122637464598677)
(-0.01141587214889239 -0.02822566808949578 0.01334109302284406)
(-0.01295796553117747 -0.06388442345466823 0.0585860769962299)
(-0.01148255695676604 -0.06593490381180339 0.01305166013063299)
(-0.01141345255673413 -0.06342333761820408 0.01286052357086054)
(-0.01283994430225779 -0.03251652379491016 0.05877911950041764)
(-0.01136367339562366 -0.03109166354450361 0.01311915433702035)
(-0.0130722274813208 -0.03046319280035303 0.0599790844978219)
(-0.01129965951577405 -0.03304460200725942 0.01290738132389582)
(-0.01257208828574131 -0.01888381406415795 0.05813691686128394)
(-0.01114978312994547 -0.01881540606256614 0.01275689584200294)
(-0.01330662605343037 -0.05038319945139732 0.06077110027209354)
(-0.01146064094489013 -0.04899172010391397 0.01325562781496425)
(-0.01331453960362104 -0.04915505104476869 0.06098270626237848)
(-0.011464093815938 -0.05072837558907765 0.01322159801316537)
(-0.01288002493948287 -0.04560129231740781 0.05882186576098282)
(-0.01140453781459956 -0.04719093423329018 0.01310758948733998)
(-0.01312138871613495 -0.04772248939301082 0.06001387490706966)
(-0.01133188486845159 -0.04509506061778291 0.01290852892522725)
(-0.01309282767901863 -0.02735346054986879 0.0603586738560504)
(-0.0112907147745719 -0.02507635837718968 0.01298557757124025)
(-0.01285366982291425 -0.02558720787358724 0.05918075304745535)
(-0.01136278016293413 -0.02680831862598687 0.01318537936842485)
(-0.01282322088896682 -0.06085134853653561 0.0580069145570808)
(-0.01134937423154492 -0.05785129337166933 0.01274122443511696)
(-0.01280547611559058 -0.05772846581409782 0.05795014341646726)
(-0.01136187013772177 -0.06067158185685892 0.01275072047499556)
(-0.0126997957264454 -0.03503140747045733 0.05814782796410099)
(-0.01122847834470271 -0.03775464844247636 0.01271974918679168)
(-0.0126494316196499 -0.03766926060410323 0.05789585799468212)
(-0.01124943531862376 -0.03531616151201876 0.01277611512406253)
(-0.01261607193432333 -0.02111982443975664 0.05824733456825563)
(-0.01122377064905367 -0.0230820321125834 0.01285405372636095)
(-0.01269456773928288 -0.02338797442723519 0.05854114824545649)
(-0.01118017250439357 -0.02096453272231058 0.01278646001500069)
(-0.01311258572142547 -0.05213386758379113 0.05951688720261405)
(-0.01137397186648724 -0.05513907385562761 0.0128352915885689)
(-0.01290318818658461 -0.0547031365010542 0.0584163931872663)
(-0.01142251526992942 -0.0527268664536139 0.01302735663585223)
(-0.01272366693702462 -0.04302288962742408 0.05817128485187022)
(-0.01123567704983711 -0.04025622509574858 0.01272055887521934)
(-0.01265786881596625 -0.04034669479418759 0.05790255577955594)
(-0.01126898340946654 -0.04273742313346781 0.01277837340886193)
(-0.05477682391819882 -0.1701013721678663 0.17746018433234)
(-0.02689390223538004 -0.2179574008027279 0.2450483866374671)
(-0.09017245788510296 -0.2385863341507512 0.233941295527055)
(-0.05223825730326238 -0.1891885919206352 0.2495275487641206)