/*--------------------------------*- C++ -*----------------------------------*\
  =========                 |
  \\      /  F ield         | OpenFOAM: The Open Source CFD Toolbox
   \\    /   O peration     | Website:  https://openfoam.org
    \\  /    A nd           | Version:  7
     \\/     M anipulation  |
\*---------------------------------------------------------------------------*/
FoamFile
{
    version     2.0;
    format      ascii;
    class       volScalarField;
    location    "0";
    object      mag(grad(Phi));
}
// * * * * * * * * * * * * * * * * * * * * * * * * * * * * * * * * * * * * * //

dimensions      [0 1 -1 0 0 0 0];

internalField   nonuniform List<scalar> 
12683
(
1.096667462062186
1.100055424352735
1.029142147808493
1.065612233799662
1.061568329594695
1.053978007341487
1.059059110951203
1.033879066286082
1.040743760230307
1.050790135237599
1.044691321433354
1.067522625305428
1.070580259431127
1.074092842529311
1.071958269911428
1.074986388274963
1.076233897975834
1.077011966011937
1.076658024968907
0.7393448676295623
0.7456739063896994
0.744782061599375
0.7499064972152277
0.7506488389452655
0.7430292804726426
0.7438972865980653
0.7396164580213561
0.7393489278110573
0.7546839976086752
0.7550842020729007
0.7520144796333199
0.7513517347965204
0.7566088458373397
0.7566673623128597
0.7557375520601483
0.7554357397192754
1.127306243810416
1.056783150052343
1.094816962704047
1.093285644028493
1.089902895274923
1.091648873110822
1.131086518415021
1.059960739214771
1.134743010887221
1.063068502811958
1.068989265632636
1.066078963366442
1.096244160863514
1.097570610327326
1.099928695024344
1.09879781451075
1.106491068519701
1.106418437552011
1.106025130302665
1.106264045881993
0.9823009593280013
0.9033499438576125
0.9417557368096056
0.8170467918298714
0.7766967050831354
0.8694801679226851
0.9686804967748168
1.010330491091456
0.9254970648784211
1.011876252413541
0.9268158284587126
0.9672015294126242
0.9700079978395797
1.014690404171424
0.9292273760603248
1.013328473676618
0.9280579209560371
0.9713137742654856
0.7465671656656705
0.7474468013437356
0.8877214850617109
0.8863754579188062
0.785895213525399
0.8285089503207493
0.8297884661113463
0.7848288936490098
0.8835090815616164
0.8849691325639285
0.7869449742208617
0.8322311358463205
0.7879654748560595
0.8310364149667654
1.081788835100496
1.083991998051697
1.088046813789252
1.086076554287562
0.7491226523499289
0.7483023723857402
0.88900590092627
0.8902241449213958
0.7907894550882942
0.8364821187582642
0.835508580470002
0.7916363625399537
0.7898928177495661
0.8333817732117627
0.8344710067358145
0.7889513913612753
0.8924607315288229
0.8913765225910824
0.9640550979767787
1.008692090101269
0.924106788461179
0.9657088223195017
0.9226415788902139
1.00695851802273
0.9623981374218328
0.9195058217365153
1.003208766047735
0.9211089177670786
1.005131192590584
0.9605719847136049
0.7421889411925633
0.7414011506974985
0.8772366991554605
0.8788515111248804
0.7826687354030617
0.8271865836645101
0.7837493262938345
0.8258473920674496
0.8819974875441827
0.8804433050103758
0.7815946769416149
0.8231221067687354
0.7805498075089232
0.8244805248819573
1.079468296292357
1.077026137153471
1.071784441471969
1.074466014742289
0.9483318404893935
0.9922489175784779
0.9106676503568432
0.9898231200473618
0.9087966083035646
0.9505820699929066
0.9461797198039628
0.9848274036128472
0.9051043607917372
0.9873415453901804
0.9438852197935326
0.9069370026391764
0.7400816733353465
0.7406888515721319
0.8756094816196532
0.8739930739515567
0.7778092833005069
0.8180567080422421
0.7771487693850949
0.8191970049623588
0.8708910611760322
0.8724076006635437
0.7786271927130801
0.8217643874768971
0.779550263961954
0.8204565206898631
0.9548028823403122
0.9946079953033188
0.912517611949147
0.9143407146803955
0.9968888750584941
0.9526643980481325
0.9567650956627095
0.9178421751783323
1.001193294052784
0.958756142316064
0.9161157695735953
0.9990855369226347
0.9746222097879277
1.019254172926402
0.9331675990969198
1.018241873765475
0.9755956112541908
0.932290312956121
0.9736155231952727
1.015961565148011
0.930320901087205
1.017145477545389
0.9724786156827921
0.9313426418209608
1.103524015769065
1.102760856137534
1.100964737810385
1.101908354622847
0.9772644598518816
1.020182191905997
0.9339728890145987
0.9764491338478405
1.021029041828651
0.9347095467241494
0.9779696750828973
1.022481069155191
0.9359762841266807
1.021794501595761
0.9353764860190671
0.9786316233578565
0.7542376648631184
0.7537494331839252
0.8968830368175195
0.897571011659718
0.7961906498343241
0.8421825219573321
0.841673511072609
0.7966410458465109
0.7956894921237289
0.8404823302689965
0.8411051613609671
0.7951399397572747
0.8987573877760036
0.8981958340483284
0.7526380980440488
0.7532163777213394
0.8961302130928805
0.895312551692508
0.7931859489665175
0.8374015573026182
0.7924358675166827
0.8382578320591614
0.8934783333675774
0.894428363952279
0.7938884673339894
0.8397986107398236
0.8390595038031337
0.7945393739963615
1.104198783892331
1.104786059207401
1.105699182227894
1.10528624775804
0.9801184282111084
1.024438191050524
0.9376951112781035
1.024067303283393
0.9804758063325035
0.937368210742532
0.9797027865881822
1.023088200625864
0.9365077814472261
0.9791919883260906
1.023617344113604
0.9369723002428825
0.9809429412285294
1.024728770195322
0.9379516553513056
1.024939725539942
0.9807426316806832
0.9381382704277481
0.9810619605074374
1.025133636058695
0.9383101330750298
1.025073132633686
0.9382565383096532
0.9811158680473525
0.7565111691610448
0.7563778740852642
0.9006210312274584
0.900802547553891
0.7983485970969175
0.8441393416644064
0.8441006258192969
0.798392579576361
0.7982578018536859
0.8438567512074883
0.8440082230551761
0.7981182302742638
0.9009790528431078
0.9009215089843206
0.7559967298285326
0.7562076317350138
0.9003758458106355
0.9000665328225118
0.7973877964576152
0.8426362801050576
0.7970405036204377
0.8430307585323782
0.899256596526934
0.8996929880910924
0.7976851061854379
0.8436431986586758
0.8433681051326604
0.797927831927145
0.9756131568068571
0.9857533389781837
1.022556318122318
1.028135415882548
1.019753413795545
0.9776380835812977
0.9853517144165648
1.007946894018428
1.018116670164939
1.064743035125239
1.058061484594061
1.056643928777015
1.01747366940774
1.009128966341916
1.006367905326799
1.053439399737407
1.06254248912988
1.014586832406366
1.055052006273795
1.015300142764689
1.005029586726231
0.9997656093533022
1.007734664210266
1.055145930089818
1.045783660855912
1.008562676062699
1.047804295972579
0.9981127899034627
1.001752170055339
1.051637423820963
1.012117958983237
1.057983890523889
1.011341333595699
1.003248464957715
1.049823148293807
0.9824803239526023
0.9901292860378956
1.035099741144421
1.025534500058297
1.028285633692877
0.9908033817091352
0.9803941831198254
0.9851831819919515
1.03375276035539
1.039446001934157
0.995706680086336
1.031140717081762
0.9948978604415845
0.9872242910509567
0.994118361386638
1.004632830020959
1.049545016354196
1.043543517451489
1.003772976245613
0.9959212633975804
1.041315382982074
0.9917290892835072
1.036424659839518
1.045986268527131
0.9994777942892414
1.000337796402896
1.038854358989745
0.9897914902728746
1.011540990654297
1.020009323589049
1.068285763166208
1.059451450614552
1.060681526681222
1.020578217143289
1.010511447368725
1.012733664749941
1.062928215046746
1.069922680557222
1.022696650685652
1.061877989424413
1.022203732187771
1.013615204568539
1.016195481974086
1.025947860383648
1.073642776607596
1.066359449381618
1.025609429472636
1.065649104361523
1.016793353112977
1.015362812486511
1.063939196116989
1.024067327497272
1.072511513849135
1.024483391215845
1.014624821251178
1.064816595485614
1.01791166097692
1.026836068385143
1.075333251790158
1.067018663621541
1.027094855398586
1.01745343883088
1.067565446119344
1.01839970425349
1.068436770279239
1.075993172288213
1.027920006181483
1.027746018502258
1.06805348262191
1.018712920097699
1.069181068991512
1.019355050826824
1.019323019290407
1.028597107801203
1.076980667928562
1.069117365167618
1.028585519804565
1.019186536683988
1.068752441387421
1.076788729825464
1.028328289088563
1.068971299320172
1.028412960213765
1.01902431176356
0.7396819299132068
0.9002594698322423
0.9017069761719252
0.7404639085332695
0.8672290163577507
0.7765309649231117
0.8162700374384424
0.7767379166100032
0.8157620566420872
0.868237268045696
0.301883757894513
0.3184320061562773
0.2769625830266689
0.263398620125539
0.2958641950768186
0.2505777797342551
0.2534846227597566
0.2831665803561753
0.2723952787578175
0.2702971604626397
0.100189623932392
0.0689273891586186
0.03435742319345683
0.06912331837798265
0.03324146866584592
0.08764392077406581
0.06818802304732625
0.06571285810565679
0.06838986312776492
0.03560810056048454
0.06853013807159401
0.03723208991758388
0.06240638540734438
0.02531946999184183
0.08005410490515751
0.05203120792732756
0.07945052845106661
0.05366194360017996
0.07553399761076107
0.05028773865212052
0.07778992233616992
0.04825563413537103
0.06754852663342678
0.03041264892180036
0.06574407628027454
0.03196330630070813
0.08504189408235592
0.06031516592307966
0.08279356922965421
0.06302946779619401
0.06906268325077834
0.04139183765342302
0.07022045063726406
0.03920472135590552
0.06322945705701158
0.0287050506223045
0.06430564077740586
0.02698150198206246
0.08020062291425599
0.05774451845707597
0.08106417458680917
0.05550052542117677
0.07346263753456769
0.04368771813480003
0.07169925654832218
0.04600830523012352
0.251847363049972
0.3290553484381506
0.3460968661479203
0.3174667800435584
0.298178744596437
0.2281099506779618
0.2147736402731748
0.2828014648371788
0.2964005460880278
0.1976405182530026
0.1724233052655333
0.2018527052108088
0.2687076345437595
0.2722873989509638
0.2046283366645713
0.2853467557378913
0.2819276234536547
0.2724805346538272
0.2187802391230144
0.1989500378165962
0.3748647600664627
0.3567395085686749
0.3713319722455121
0.3581130827075832
0.2469329902923685
0.2748307486524729
0.2480428129082115
0.2653943688973892
0.2680171528145573
0.2673230747428509
0.2729853184128257
0.2663382842079758
0.2710116640257558
0.2718146878527164
0.3910749382978903
0.3931985452742612
0.3594629007750398
0.3634526273963322
0.3776194511852148
0.3715945087201625
0.5474729906942716
0.5386393287600031
0.5449157532033666
0.540703465970685
0.5382956429561805
0.5392669214570461
0.5406791269424117
0.5393393444535105
0.6089771393946496
0.6039989088444225
0.6072166880610753
0.6040922617002853
0.6063489767004445
0.6088102313694789
0.6086527827427178
0.6066635591454292
0.5397832030501433
0.3489578103188929
0.5407840348589623
0.3403086780891221
0.5392964867670543
0.3523985161976386
0.5386529401464915
0.3492113562574286
0.35223043542863
0.5388289563806692
0.3412045861949804
0.3437372711137504
0.5401592300728323
0.3458286954606477
0.3434647170505245
0.5400964548029552
0.3404962734683388
0.5505816864149392
0.502138969188151
0.5064206681212826
0.5389545151251097
0.4887241954073617
0.4894813097372946
0.5431849472238529
0.4980952662845513
0.4958757448440085
0.4878491345838231
0.5402941475916814
0.4868962969100889
0.5382111085840041
0.4873669309974821
0.4867879072923802
0.5391062785143417
0.4872165453199343
0.48716129377485
0.5404402699820026
0.4875955770200692
0.4868859077716771
0.5395290912914903
0.4866291947502234
0.4865137584105979
0.614153222222083
0.7315085097385412
0.7333694016685053
0.6039932172497621
0.7014909737363187
0.7005196428278122
0.6051694180627848
0.732377204417107
0.7323262758641577
0.6046116190768662
0.7021062090111712
0.7369298715787723
0.6056673801447351
0.7396992083621018
0.7383614086741656
0.6089662951892706
0.7442470293062997
0.7448133684786014
0.6081756056989808
0.7437469694438995
0.7427322674593583
0.6073442139386128
0.7406696923208769
0.7417689514509979
0.5543713865277715
0.5107748835558615
0.4495143636453266
0.4555719506344683
0.4582755824802121
0.5392307714074382
0.4905380310629308
0.4895813695201088
0.4310242670617894
0.4320586999795835
0.4312170743767528
0.4298474513361984
0.54192564436581
0.4927334641709379
0.4946212999602662
0.4414403962398786
0.4391825161352558
0.4371462620230644
0.4401053879575417
0.3442872643378732
0.4270861514451536
0.4242324976592779
0.5396295591930984
0.4848919671018103
0.4853319710967002
0.3503294971693387
0.421584561887051
0.4217131965455691
0.5383601841853108
0.487496190766826
0.4868689192524029
0.3558651992119922
0.4262494288247216
0.4246408328563849
0.3570520627535413
0.427817723749161
0.4250292831912309
0.5389146307772374
0.4875309323911935
0.4869968852514044
0.3462238182404439
0.4269949704697909
0.4261286728912715
0.3443345792981508
0.428274500398816
0.4251122717043274
0.5402440126091883
0.4870129352868072
0.4866644681088956
0.3503822667574231
0.4252214323623193
0.4223599006181286
0.3495045288930474
0.4238016367033411
0.4219296086544105
0.5398609080864307
0.4875398176629916
0.4872201005149794
0.3493587048499486
0.3435827108792261
0.4236963073400826
0.4224556655118844
0.3465845578747555
0.4268669839290573
0.4253915411679504
0.6057244374765129
0.6007253741024076
0.6039668568536062
0.6008005319282053
0.6031479406705399
0.6008842929536007
0.6013238497590661
0.6017499437681079
0.6021310133415676
0.6080114232261891
0.6006845066187699
0.6027661980481333
0.6010051448311854
0.6028189605612284
0.6109817767106456
0.600697360447277
0.6019365199930083
0.6013394045296319
0.6024692339027203
0.05946335169491077
0.01704834047401221
0.06073517437542235
0.02231842912332546
0.06119470569512559
0.02101329793018895
0.02375876144109375
0.06174287145680387
0.05959035076423221
0.01804984294008957
0.05978120015092812
0.01743843124147909
0.06035123410317371
0.01886227279380878
0.060034476102449
0.01985613252301012
0.2753400439142487
0.2751794120038894
0.275411410450817
0.609171109932787
0.5392057477111386
0.3530642304947839
0.6090280456305456
0.7452686648474123
0.7451632800022563
0.5394174736264692
0.4849903792506561
0.3531394248453629
0.4218240202838594
0.5392502723538266
0.4848062382787618
0.4848477985877758
0.353232399317762
0.421700230946202
0.421780082177121
0.6054960900112335
0.6053825228063791
0.6034401114678589
0.9121853498605236
0.6439966886572042
0.9351855622852091
0.6424434127871692
0.6458973024388052
0.9275479832297475
0.6420919666605968
0.9150062892239283
0.6428255790808802
0.9245465526419545
0.9372184637608859
0.9417426051027612
0.648812687497043
0.6463300314983468
0.9427299025086749
0.9440512480653467
0.6490039666370853
0.6051398464783475
0.6051411278589411
0.6046815485638163
0.6044473529335431
0.6053657526642916
0.6054111102438784
0.6051482577221468
0.6037642942075572
0.9101188444391288
0.8498889187981118
0.8485294061738973
0.7745003935422817
0.8693775441472709
0.932890247903763
0.8673530375326324
0.6439160977426112
0.7818018166461219
0.7848197916648505
0.6444457414273477
0.788328131411597
0.7857185505973423
0.9303391311000891
0.8626685986851002
0.865109712797694
0.6414081415937841
0.780832283848742
0.77779171401757
0.8521937148527301
0.9181569427068523
0.8544629086038636
0.641459863483171
0.7747673097103984
0.7769366631234335
0.8600658253113874
0.9213867062252014
0.8570019544494123
0.9389878065000518
0.8707550056959767
0.872367462780845
0.9404951275130837
0.875176109588003
0.8737528939815374
0.6479261486141833
0.7931812922587532
0.7916931840625074
0.6475870371977889
0.7890690611115406
0.79113118006509
0.9434489347370211
0.8760523872169812
0.8765495523478251
0.9438848449947213
0.8771728002038857
0.8769919466302524
0.6491985297959971
0.7946482369459891
0.649146817857266
0.7935640279882827
0.7944720481248088
0.6052174286398988
0.6052418509573374
0.6049010448660919
0.6041298885563479
0.6456291881498279
0.6853355865579875
0.6862263050938444
0.6428723351750114
0.6877288572032503
0.6884138031000374
0.6454346410841129
0.6925022803703018
0.6918859773869441
0.6417791377647413
0.6870737976964059
0.6864521408847547
0.6420942943119305
0.684841905628834
0.684671576258515
0.6485406976189857
0.6962427056061127
0.6959048534742833
0.6467616111603637
0.6930870574425272
0.6936436483888783
0.6493838237790506
0.6973634599105906
0.6490867921221349
0.6965263111515694
0.6967475649110911
0.647886078530535
0.6876306946125286
0.7329648773512776
0.7743831150499318
0.7333461493334498
0.7747962056641535
0.7341577281580612
0.6433720876955517
0.6898491803261421
0.6891281792140314
0.7380809195865351
0.7828585069319273
0.7389407753113274
0.740656115252744
0.7838087659136465
0.7398073520805527
0.6449481480808557
0.6905574262830723
0.6912349254831047
0.7437740158384548
0.7874803312615811
0.7430501076980734
0.741488230746995
0.7866554925393241
0.7422837927502918
0.6415333450108225
0.6853827238860762
0.6858759381074513
0.7372220926264372
0.7797644570863129
0.7363880865492095
0.7348286803651238
0.77881701664557
0.7355773933928583
0.6416667413588644
0.6849979467956435
0.6847469649990182
0.7329343862509474
0.7753895002943904
0.7331552340969596
0.7341486594189541
0.7760417530688257
0.7335844387831204
0.6482381023321057
0.6951163220081195
0.6955257423937085
0.7481381512377282
0.7927213261928628
0.7477403385988967
0.7468173662440615
0.7922494774889437
0.7472979165238142
0.6471928731351403
0.6946679452915033
0.6941760767720729
0.7444639984196779
0.7898222816800279
0.7451117567549779
0.7462913581945756
0.7904757377325761
0.7457245974850918
0.6492778091469537
0.6971852058423246
0.6972824040480838
0.7948382610489526
0.7496289025535635
0.7494499927474193
0.7947762872282097
0.7495628314329486
0.6491217905442437
0.6970688898089944
0.6969289830272617
0.7484939979868368
0.7939278453429428
0.7488036793351515
0.7492870885232855
0.794218553556671
0.7490731894117059
0.1109316241330857
0.1474977743133797
0.1102697640176343
0.1503854982264525
0.1072265596338981
0.1389084422810801
0.1458334449118368
0.1031947283206579
0.1128470569038543
0.1036009652878079
0.1414698692150994
0.1059485624679749
0.1372967033968399
0.1034467419525648
0.1381818147331507
0.1375376145082769
0.104144986436977
0.135439764141513
0.09916509513322042
0.0995912316358229
0.135699851166801
0.1360573600972529
0.1369442109140279
0.1012155583910085
0.1166397657178268
0.1553863358785791
0.1507756139230261
0.1174492731618929
0.1128388975921834
0.1427086362312287
0.1117683002557349
0.1450036598374486
0.1095842261563258
0.1514205473344502
0.1140393462032712
0.1437680688237682
0.1069520715056695
0.1391957257815394
0.1052934978468997
0.1408034030957765
0.611154186652363
0.6555554354184369
0.657158443055689
0.6039367082555402
0.653461010161007
0.6531687660884761
0.6543666037642184
0.6060579974839905
0.6536180387369684
0.653821163958874
0.6043192870513474
0.6542306370166399
0.6060078692996933
0.6570973302689448
0.65664315692249
0.6088708489236682
0.6603421543877959
0.6605693870129682
0.6600779485954467
0.6084250581480638
0.6597952744374259
0.6575487310623352
0.6070017585646702
0.6579742324821826
0.6594506330376253
0.7336318490932848
0.7009671134125187
0.7021327662361611
0.7037119261406911
0.6529523002425541
0.6041589965979715
0.6528530122456178
0.7010303962886364
0.7340073390066484
0.7340698884481099
0.7329918789415245
0.732689701838516
0.7002155549704872
0.6531410593380752
0.6045961886134152
0.6529135203647232
0.7003406542925236
0.7311343820341809
0.6999180439223295
0.731653406427039
0.6998784572082003
0.6999091587681309
0.6546992186855155
0.6049789209542263
0.6551818952282926
0.7353625133882671
0.7026509266821627
0.7354530876711054
0.7033176369523523
0.7367459526363226
0.7038980061556125
0.6561594513466765
0.6053217519610543
0.6556821684632897
0.7394506050825026
0.7063005060704644
0.7057655487021466
0.738130645265609
0.7051335931669316
0.7045648081411063
0.6608309805809577
0.6089854562800721
0.6609879276864494
0.744420401037809
0.7102197125052713
0.7104960928589058
0.744943236175613
0.7107874064662186
0.7109826584346641
0.6594761568102819
0.607923145672175
0.6591488013998079
0.7098877321466397
0.7435558034293271
0.7095650817103905
0.7429457039558003
0.7091731071151856
0.7087952198821813
0.6583997584077058
0.6076598567163175
0.6587843682930541
0.7409184220711548
0.7068823408054329
0.7073736952637977
0.7420043211411255
0.7078997993553566
0.7083378644412873
0.09787302672865968
0.1347171334920051
0.1345897089070617
0.09800667872682856
0.1352695663551833
0.09884371425334974
0.0985780043318548
0.1351114735568164
0.09835701355058728
0.1348437898326594
0.09816739939268627
0.1349769668173998
0.6612195973395293
0.6092708521713956
0.6612153261898054
0.6611079543842858
0.6090873720263469
0.6611787140839529
0.7452776807908774
0.7112538259657385
0.7112357754283426
0.7111366741407346
0.7452229361585304
0.7112179536389317
0.8505212470043981
0.8218243348342287
0.8220580819215992
0.878815443732103
0.8541851536402257
0.8531993230450365
0.878367226068071
0.8210397894280126
0.8757907563691566
0.8522043660794246
0.8689174883870634
0.8394431751533455
0.8388124559736724
0.9016406882026483
0.8760037493041016
0.8750055860852575
0.9022049398549418
0.8375326818401256
0.866861501097407
0.8368436059708018
0.899920004392288
0.8727280380149546
0.8738456313794514
0.8993092057631098
0.8621703411742774
0.8323842562336912
0.8331351998621368
0.8945506913117508
0.8674670979125482
0.8687938501517053
0.8939021313007913
0.8354211040737857
0.8646026498000561
0.8346887423212169
0.8967229552333755
0.8714365435734118
0.8973647547523951
0.8702069645673939
0.8233183197104481
0.8520662903543501
0.8235646776841642
0.8815219903810817
0.8555891635147346
0.881453436341794
0.8568789290170804
0.8252746073573983
0.8546407413527324
0.8257963730421278
0.8845199731519775
0.8598802336492314
0.8584627642171351
0.8848895201613315
0.859611813331338
0.8307194312488034
0.8299837532856817
0.8908816328272047
0.8659491034676198
0.8915013806599651
0.8645472002825317
0.8275691140861632
0.857358591167575
0.8282382565071964
0.8882572406377122
0.8615097698424897
0.8629504631263571
0.8877203813345557
0.8405762238127582
0.8711735746442647
0.8411408915671634
0.9042174512320938
0.8770290769520646
0.9037089496228438
0.8779060995380051
0.8727380713056557
0.842127449186801
0.8426216055050767
0.9055132815589977
0.8795539613490292
0.9059605272705169
0.8787975832389191
0.8449312034356652
0.874912556079982
0.8445836142304382
0.9083428782375331
0.8821010860430263
0.8815807715350068
0.908659679360182
0.8434629384242187
0.8740713743921591
0.8438841691743706
0.9074392803474706
0.8803133228697122
0.907056418614162
0.8809506281305336
0.8758475503611387
0.8454914465950755
0.8457618459062833
0.9096243627959441
0.8826036693776664
0.9093760995510681
0.8830063298755174
0.8766875731998104
0.8461796791060606
0.8463599177133032
0.9101520592026274
0.8836562808017258
0.9103254696855613
0.8833782324763586
0.8771697173980992
0.8467995352671173
0.8468017471101591
0.9108938003133757
0.8841551218299665
0.91087707021574
0.8841251156513857
0.846620164370813
0.8770555076252272
0.8466982808409391
0.9107450489392349
0.883887137779017
0.9106537604390303
0.8840335875988712
0.0168974729066836
0.0594070069667207
0.01700056802003755
0.0594332313567739
0.274519204725213
0.5397916330142232
0.3528131393396347
0.4853650892973524
0.4218983360456307
0.6055926569803524
0.6495147967626678
0.7948547446371358
0.6974270472981313
0.7496526622171792
0.09769693174530422
0.134343393402682
0.09776631956976514
0.1344619574704984
0.1718113439471293
0.2139671235651424
0.2141255200346975
0.1720504384505904
0.09767384461439346
0.1342306469547596
1.190470285897412
1.092925311716493
1.053547953876577
1.123391100788218
1.089405577947163
1.050305656952724
1.119391864164868
0.9376018889408736
0.9773815132347229
0.9395406400218198
0.9798061112099961
1.185773259186696
1.027948522090263
0.9591501969721685
0.961769872488161
1.033265524565612
0.9729597992897735
1.023053573520017
1.016772940745551
0.9807923355398663
1.10906025720775
1.156497311966391
1.137567582345372
1.132315754894413
1.11001523419572
1.139033173078838
1.142958186355002
1.149860439487527
1.149360964589365
0.9649768033090959
1.123678777746603
1.130403557132722
1.121274432318733
1.112939681394275
1.14674041185475
1.144019977069179
1.147431227365697
1.149025635303838
1.116570823089317
1.160025888370343
1.163906232265374
1.17091447467077
1.170449904238666
1.158413317146387
1.153217017537874
1.19500661626646
1.170593074176046
1.135902106691289
1.16890142908381
1.134218954967612
1.165158708539221
1.167094047511678
1.103581232602474
1.141604579937269
1.106755078788667
1.138243475728158
1.172164297419474
1.140473303262895
1.17362571924241
1.141732133910885
1.176216704211625
1.1749734957746
1.183398113185583
1.14978080521454
1.183317988515172
1.182887593993524
1.149620397139177
1.183149144450525
1.167760169236172
1.165074157553516
1.168519675607153
1.170083348631497
1.144448592201765
1.151111860627127
1.120335399452418
1.130283164835018
1.141797665811578
1.133516044499631
1.156117209532757
1.126096694413061
1.158584647394067
1.163101133159225
1.128249563547677
1.160907435747261
1.153513966813272
1.118580734016669
1.150757902298117
1.144804250212139
1.115916989026882
1.147860642350569
1.180155892862428
1.145914839414025
1.179320072058263
1.177352187559879
1.145041777149695
1.178387512701477
1.180892762379202
1.148066221350627
1.181535011931296
1.182531999133125
1.148578763306932
1.182080612492953
1.244897453396763
1.246482967120198
1.257059800767048
1.256973101960946
1.243188897470736
1.241349846584941
1.253555146153633
1.252652168545985
1.254351991558679
1.255045428018784
1.227362598067084
1.230073374912372
1.199346487678029
1.203506127516517
1.224491206974133
1.221445208258975
1.249292386073285
1.247945869975754
1.256507586762561
1.25679041184284
1.23727054943214
1.239380006711695
1.250522991889981
1.251642773160922
1.256122873807156
1.255635316956804
1.235021433952121
1.232622243898448
1.211242617784859
1.207465662058427
1.214824685274372
1.218228058682192
1.038668464742982
0.9684130819479627
1.043905937958363
1.053423202625634
0.9718641594176619
1.048846062835908
1.165080365989943
1.112990834217207
1.160986135427426
1.21258053691891
1.161374162193062
1.214065791166422
1.162759039694219
1.216773171155977
1.215510548077333
1.224289225053822
1.170851204850209
1.22420426374643
1.223751394008833
1.170679163080837
1.224020415912805
1.210894488519741
1.156853239193719
1.209173815067559
1.155000910191709
1.205261163519125
1.207231833321706
1.220886245309994
1.16698956901057
1.22003817540669
1.217989277101265
1.16602943835545
1.219040177798711
1.22167438035376
1.169110029689372
1.222326211837311
1.223369396717491
1.169673084053015
1.222909990644064
1.195783492834655
1.146719605510246
1.198304368744079
1.203046674985266
1.149091153228862
1.200809742791721
1.169266319146713
1.123684364132209
1.173059044339771
1.180368447309396
1.127200172449189
1.176901012397687
1.192967578689013
1.13926350388006
1.190144704024272
1.183858620663555
1.136323138681299
1.186999140037013
1.224285808706673
1.257054919070103
0.2787777754311856
0.2533549781183903
0.2847443257616829
0.3023740556160796
0.2866839493472031
0.3034639145012344
0.3231611454200358
0.315781201245636
0.2679711131343163
0.2538493978721868
0.2853958468653558
0.2917381321252875
0.2374071122205216
0.2497920926190826
0.2777565919450579
0.2685276871240796
0.2340919759172689
0.2156538865085877
0.250387202160838
0.2608151662356819
0.2084108008416086
0.194284886429569
0.2324038775255823
0.2391394162321003
0.2343402623172316
0.2223881942812857
0.2571433748126487
0.2625718412275013
0.2105159576851426
0.2200768484830443
0.2514426185293765
0.244785737205403
0.2172879186981324
0.2146464146375759
0.1729072179829106
0.1761325640359885
0.1724144041354339
0.1731557329198254
0.2145732999340196
0.2148276357707429
0.2141686834612842
0.2147043345978231
0.1736928903696834
0.1834451791274611
0.1748833187979507
0.2171595336909109
0.2201994822416904
0.1854189441055696
0.1940293954823403
0.22949239114885
0.2249540818337764
0.2128981177577702
0.202925783607253
0.2401366925811403
0.2448755105722434
0.1951877245125708
0.2020955393541676
0.2364162913595299
0.2320220868325636
0.1789058931483611
0.1885421163124499
0.2231840531167125
0.2197299464068382
0.1955344046824548
0.1895590799913964
0.226730924490321
0.2302173925707323
0.2212590708775456
0.1879427813024462
0.1809951171471669
0.225182988319969
0.213206738133253
0.214103473313574
0.1758187507090921
0.1705546398401077
0.2122163326000784
0.2117270897431879
0.1691961706499989
0.17170146399468
0.2128170644813304
0.2139382846749722
0.1741615219465846
0.1721407887467866
0.2204043292049172
0.2170873150232083
0.1812611101382974
0.1760394845459562
0.2158265608605377
0.2143702244862373
0.1736661555419441
0.176394476657957
0.1721115296573019
0.2144551128520832
0.2146165499829416
0.1724479665147642
0.1729557796364266
0.2149354254440357
0.2147356184223479
0.1723901960445292
0.2148663797278172
0.2146925753619953
0.1722955122643119
0.1727374293839798
0.1715172560948943
0.2133184757839796
0.7667725870473585
0.8288473994927703
0.7971304907051568
0.8753955918876518
0.9037507055587386
0.7579186435587288
0.7515888802884364
0.8232316337744141
0.7897176708926618
0.7845810320641372
0.8195549984468885
0.8708934796157496
0.8682145846085575
0.9003785404363153
0.898669225974667
0.9710289788386797
0.9351921739477331
0.9700493355144834
0.9331791874053524
0.9327560502349761
0.9702975987038209
0.7470880565280461
0.7439533183665761
0.8663656966792858
0.8668332806764374
0.7810989133755895
0.8161213348175729
0.8173434840486646
0.7788246160756972
0.8990755638272259
0.8983010759174325
0.8980756207075992
0.9714087120833816
0.7418254565477401
0.8665631734332457
0.8156827040839838
0.7774493363107432
0.3303630902306277
0.3975130181141454
0.3604356568441501
0.4410939662124232
0.2782644417120074
0.3413098967737053
0.407249121992092
0.4000851685333084
0.4560141860639127
0.4236183580420479
0.3995397830466069
0.4966101729450121
0.4410437279908203
0.4406502633679031
0.5947483318512078
0.610890696043441
0.6612448219841917
0.6371197111738524
0.5654836029420929
0.5592934981678409
0.7616954141893727
0.5823363394469425
0.559429297195258
0.5442424755034373
0.5788080248196006
0.6228455905986434
0.7461329950383725
0.7376880774171619
0.5728008847544562
0.5254158372915614