/*--------------------------------*- C++ -*----------------------------------*\
  =========                 |
  \\      /  F ield         | OpenFOAM: The Open Source CFD Toolbox
   \\    /   O peration     | Website:  https://openfoam.org
    \\  /    A nd           | Version:  7
     \\/     M anipulation  |
\*---------------------------------------------------------------------------*/
FoamFile
{
    version     2.0;
    format      ascii;
    class       volScalarField;
    location    "0";
    object      p;
}
// * * * * * * * * * * * * * * * * * * * * * * * * * * * * * * * * * * * * * //

dimensions      [0 2 -2 0 0 0 0];

internalField   nonuniform List<scalar> 
12683
(
0.05346467203127366
0.05473670672400557
0.07274392864017522
0.08031283843045474
0.0801894014353129
0.07955606590354447
0.08010621660267053
0.07413687152431199
0.07719158957801778
0.07927520779178168
0.077860580646214
0.08030497322141657
0.0802454721346746
0.08010046547642212
0.08020620484863186
0.08006343901114238
0.07998574021151608
0.07994880788332873
0.07996767888531699
0.2170432241873294
0.2333473627774448
0.2321931991027244
0.2380174759293977
0.2387562761040271
0.2296358794267671
0.2309611318821038
0.2213361181209427
0.2192650174501868
0.2425156316871857
0.2428683118031623
0.240075797771903
0.2394403546113
0.2441636295530285
0.2442180844819465
0.2434219039335776
0.2431706929143525
0.03381423170858502
0.07548114761680291
0.08344471804561132
0.08340384302607232
0.08326740636239938
0.08335811270665741
0.03492141779372477
0.07690465689314685
0.03575349430320542
0.07816356662946018
0.0800546229616491
0.07916777041930433
0.08345279343220575
0.08346113189121875
0.08343481273426538
0.08344611788219383
0.08320232086696799
0.08320485663017237
0.08322273938470461
0.0832119418696506
0.1087840000125242
0.146997945571419
0.1252077351176567
0.1787783287559117
0.1988690620310229
0.1654761070529576
0.1379868380550484
0.1198370340058898
0.1613069784649427
0.1201003095669225
0.1617934229792795
0.1376280232503187
0.1383014818983499
0.1205410787781988
0.1626112368773132
0.1203448674491357
0.162215815151091
0.1385831755484433
0.234427537709522
0.2354325029103918
0.1804819414413135
0.1797843671385842
0.214389200671058
0.1921970728690573
0.1931012329301734
0.2133465135480388
0.1781867415626773
0.1790248200137727
0.2153636604618997
0.1947145726742157
0.2162580695561483
0.1939526050168522
0.08254801882010543
0.08281522500213218
0.08316458271350569
0.08300104925270808
0.237219705311559
0.2363611549254973
0.1811129122516069
0.1816917374511382
0.2185529311732812
0.1972038087281773
0.1966685789655293
0.219197559606654
0.2178474875115503
0.1954302179579742
0.1960688069245692
0.2170887760989543
0.1826950894892907
0.1822148152085763
0.1367680430810273
0.1195117924464214
0.1607862221811433
0.1372253146530837
0.160187498114131
0.1191597491353618
0.1362526804825833
0.1588088979079831
0.1182593860469591
0.1595456993097461
0.1187284970852932
0.1356697202004264
0.2282067601842357
0.2266699692202745
0.1739212168662234
0.1751520415150404
0.2109944220173578
0.1911868572145349
0.2122132503543364
0.1901095119229555
0.1772727076669944
0.1762610051676317
0.209662130293903
0.1876068002735611
0.2082262562212848
0.1889004481083336
0.08224421237208186
0.0818316787966326
0.08074989231740906
0.08136301103870204
0.1301098332127113
0.1144691105334902
0.1537481396715375
0.1133607979852346
0.1523231933555241
0.1313496340211431
0.1286785174793905
0.1105528876982816
0.1489686585776507
0.1120275406059701
0.1270719028172952
0.1507670376082914
0.2232516135129052
0.2250250058346722
0.1725672228646119
0.1710599458817388
0.203101594856636
0.1809263373699998
0.2010819408340851
0.1828266567042441
0.1675357277341172
0.1693942295257917
0.204962552658251
0.1861524084667629
0.2066585521950797
0.1845901250483896
0.1334113351153662
0.115473777453131
0.1549828327148627
0.1561187684829087
0.116306119700359
0.1324514809131331
0.134262770983546
0.158016293648745
0.117688221699072
0.1350089390287243
0.1571047787106122
0.1170634111338775
0.139242949821424
0.12111609531057
0.163813401018487
0.1210080491168252
0.1394161407791476
0.1635537902198256
0.1390506139811707
0.1207246390801251
0.1629542438564398
0.1208705764639094
0.1388292695255704
0.1632758005675481
0.08333087379059181
0.0833549442709219
0.08340755228419429
0.08338625830492095
0.139699543955998
0.1212183938288512
0.1640359839058753
0.1395653218674109
0.1212978662118509
0.1642425727507061
0.1398140953249728
0.1214316961722888
0.164579275643281
0.1213734942388338
0.1644181269378511
0.1399167507471623
0.2421186582296376
0.2416812393075765
0.1845052075797736
0.1847689357382355
0.2224374411247299
0.2001043743637709
0.1998663652475547
0.2227343037359431
0.2220991247584804
0.1992896065122644
0.1995903504345891
0.221726234139227
0.1852095018211436
0.1850018237722168
0.2406638390509837
0.2411985462945822
0.184213574637459
0.1838863668527117
0.2203442108585793
0.1977065851218149
0.2197965887268362
0.1981550979531493
0.1831290200529316
0.1835275190045066
0.2208516708063339
0.1989461907821385
0.1985750669760451
0.2213092123315396
0.0833014866025294
0.08327954450895814
0.08323873091501324
0.08325588432401063
0.1401419525578636
0.1215971573176342
0.1650184645099747
0.1215680798612836
0.1401948238181736
0.1649338998750454
0.1400794513500403
0.1214869801320755
0.1647140034462196
0.1400031163934514
0.121529106596079
0.1648350402375216
0.1402669564424258
0.121621768951075
0.1650841087983228
0.1216398984880506
0.1402353684620145
0.1651350680130452
0.1402882517692731
0.1216610397329745
0.1651902208760679
0.1216525577437322
0.1651704014605567
0.1403008367236488
0.2440766549376925
0.2439592796730281
0.1858727881544666
0.1859399891675116
0.2238479415063696
0.2010464416906018
0.2010142729000121
0.2238915713198479
0.2237756114062249
0.2008803253084655
0.200958756124609
0.2236772819998666
0.1860132283454993
0.1859864703517667
0.2436351095757327
0.2438120684174823
0.1857859825895007
0.1856763724608994
0.2232115620512376
0.2003171902442672
0.2229935384492801
0.2004958413090694
0.1853888624383014
0.1855449963189134
0.2233986460773013
0.200777551080899
0.2006517605261592
0.2235514678760484
0.1035290428597447
0.0888941233254916
0.09031366572438554
0.07102147867030117
0.08843734815954778
0.1054869219179856
0.08703765529032166
0.1167537074706235
0.09838277055113577
0.08028888952531539
0.09998753769576264
0.09988025025826561
0.09829507394230662
0.1169253541256441
0.1165232600998722
0.09957910669113611
0.08026097960808971
0.09801854484685826
0.09974422256322282
0.09816221186033076
0.1162864898810297
0.1152372552882324
0.09696781778244033
0.07979957892309658
0.09847647826328543
0.09730049282932059
0.09883309971021992
0.1147961099501886
0.1156523398648556
0.09937551747037482
0.09781779938060327
0.07996406553189242
0.09759503925904718
0.1159765878364164
0.09912978865912422
0.108701873550983
0.09046823421643109
0.07536043256976543
0.0918851089471012
0.09325608460091883
0.09181717187109392
0.1072398023883701
0.1100187704859588
0.09539870190388378
0.07633661069226766
0.09393864026733588
0.09440419552527803
0.09296777901447403
0.1111071112016874
0.1136436070241581
0.09654481879708694
0.07888885997676938
0.09805238629654962
0.09606076079304544
0.1142414788692209
0.09754387333698469
0.112903002700131
0.09623103373647678
0.07844477263468638
0.09477228270166843
0.09546298993977793
0.09694619372150355
0.1120951449663951
0.1172197780436357
0.09846738654967553
0.08029851359354238
0.1000754333201168
0.1001421953714416
0.09851656817815251
0.117096138680139
0.1173458689213992
0.1002357319682587
0.08026948698868383
0.09859146693833247
0.1001966106338014
0.09856774409714668
0.1174342294612176
0.1176569236663713
0.09864366677146912
0.08013306133349034
0.1003168874455712
0.09864349766516765
0.1003062895400017
0.117701501244994
0.1175894169821239
0.1002675545068545
0.09862029589939642
0.0801742809104259
0.09862843855253234
0.1175267087191927
0.1002887221056148
0.1177825431966621
0.09865154396364495
0.08003521899913801
0.1003263790473496
0.09864935285356881
0.1177506071595118
0.1003315714171305
0.117817669501497
0.1003396652321583
0.08000650133445589
0.09865404033662836
0.09865475812192855
0.1003369414754343
0.1178404571053432
0.1003500209439404
0.1179039111420469
0.1178945980448444
0.09867660895198893
0.07994996599601548
0.1003473896737903
0.0986707498831306
0.1178802312439923
0.1003428474154167
0.07995647579629406
0.0986598643684274
0.1003449049190451
0.09866329927507103
0.1178640022298188
0.2146456679674903
0.1422137829471516
0.1447181970930158
0.2120689540143056
0.1606169070957027
0.1964640913584988
0.1764589433261413
0.193824806822479
0.1738306244117196
0.1631747110126744
0.3152394814641837
0.3154009253430847
0.3239679550930179
0.332782395202161
0.3246493438259062
0.3472952725254771
0.3426469599600805
0.3335127707419681
0.339807257790116
0.3476666232491109
0.3689891609472777
0.3686134938073058
0.3685758938991509
0.3681125350876558
0.369063961383627
0.3587096864309542
0.3579093507497364
0.3587842537514967
0.3671652893393448
0.3680497282691831
0.3676023311708745
0.3675397540190046
0.370326661518891
0.3707800017298036
0.3623932900145812
0.3634360352139228
0.3631984468840096
0.3626664004502751
0.3645425156924853
0.3641362347874558
0.3639028427586758
0.3647770565314053
0.3690075817903247
0.3698238208100053
0.3693699267853584
0.3694685834176223
0.3595155553838764
0.3603909803652664
0.3602701561186296
0.3596067214231081
0.3667209686499241
0.3665084981886053
0.3662295431373506
0.3670345699099285
0.370031684805758
0.3701579594842698
0.3697105626741483
0.3704793052452112
0.3616353146044015
0.3611417031801406
0.3609642783108706
0.3618903314109597
0.3651351000198619
0.3659577359730681
0.3656994450897091
0.3653794627788105
0.3186796269946353
0.3112564179711712
0.3103270908316018
0.3163354186375456
0.3201320557408278
0.3271456820179194
0.3363983885280467
0.3294174613238955
0.3260480767865823
0.3616314999906906
0.3650283393051213
0.3519371822246375
0.3449476537673867
0.3434634431673789
0.346979488425152
0.3346660356391639
0.3370522112214935
0.3485275906491466
0.3536552952114266
0.3572775074024983
0.3063112876375913
0.3172447556612214
0.3086264393085386
0.3147750882559213
0.3561019154525128
0.3555247613265232
0.3521659088150056
0.3546822210986039
0.3521608579776314
0.3556353751169871
0.3554343647168259
0.3502515541094254
0.3534429456243298
0.3524920945676113
0.3030910540016408
0.3026466421215716
0.3201058992592559
0.3180968695094845
0.3090355353565486
0.3110930681082671
0.2682210699833827
0.2839620622432935
0.2704862215338633
0.3009613394560382
0.2855349105536233
0.2944229941893193
0.3004816674809681
0.2953943347747603
0.2516245715299118
0.2668850947959929
0.2538896447103454
0.2683398943869357
0.2764415387797736
0.2822196002107326
0.281802489488304
0.2773118676430729
0.2786595583252548
0.3232479294077177
0.2767440374403096
0.3448253553694446
0.3021801712206088
0.3445779138048188
0.2898746536947366
0.3254083883881785
0.3296472765436955
0.2910702730424143
0.3367971099980068
0.3321908156783515
0.2986614601121139
0.3437920402612229
0.3420268502362676
0.2979665070862585
0.3411959974326724
0.2659502221736655
0.2820959758451353
0.2800319788382761
0.2823550345227008
0.2982995040507687
0.2967298468530443
0.2727622508189572
0.2846556287235925
0.2870373891779
0.3169188171418091
0.3013986108553476
0.3176593716781718
0.2871038008690843
0.3002890538468281
0.3021935695436178
0.2933752422824752
0.3097295199781895
0.3086765367182664
0.2999380630176896
0.3165735617435573
0.3162324901888951
0.2963344987441912
0.3110297202735168
0.312221319814939
0.2467439810402323
0.2043639523813603
0.1990779027324105
0.2636774531973106
0.2343594858578043
0.2315206555150632
0.2581514836906059
0.2066501306033297
0.2107150286029906
0.2710617554071899
0.2356253969749001
0.2225509200929254
0.2744865364124818
0.2256175239446946
0.2242078929917887
0.2828652243361278
0.2295730552245601
0.2300415907328551
0.2807895775489922
0.2292999652027284
0.228241482912985
0.278906316855614
0.2262320184572221
0.227330246166279
0.2635452748136662
0.2778488354292234
0.2937860491139463
0.2916313766877977
0.2902405598459692
0.2805851222145773
0.2929463962818092
0.2951250878558501
0.3101163976526079
0.3081579403330515
0.3050059876644788
0.3068151289932063
0.2748275796868082
0.2906270474249751
0.2887968745778254
0.296770712302449
0.2984757339224884
0.3020784241504714
0.2997780990855868
0.3450756298304811
0.3300822695649485
0.330973502506791
0.3017979722513052
0.3188908719885992
0.3183960361271723
0.3446654935957668
0.3318375355682738
0.3315611612457791
0.2885510300669987
0.304835074494244
0.3036934185771307
0.3261594166245587
0.3126701846979468
0.3143589984914809
0.3275697025678165
0.316817814758237
0.315633205817616
0.2922249732130734
0.3059581304855892
0.3074144030320323
0.3350766257677219
0.3225351530145626
0.3214365225123688
0.3340381906345938
0.31828214449707
0.3202378026077732
0.2993305050629177
0.3146281022853184
0.3155887962526938
0.3426791352630593
0.3297274620466186
0.3293237940505895
0.3420848022972781
0.3279435935813239
0.3287665850643777
0.2972087510097527
0.313630841799504
0.312971996909736
0.3384745039879642
0.338015812176015
0.3241634357610246
0.3252115708114212
0.3396571159864512
0.3266464178998407
0.3258893342658215
0.2596786216464352
0.2749954668153951
0.2619042927859062
0.2764883115448511
0.2849528900198739
0.2698911935071756
0.2680489404034486
0.2806257365817397
0.2817892298626561
0.257400569663655
0.2734308881400975
0.2641069434493163
0.2779569028159737
0.283960663624851
0.2550024513854979
0.2717176845445672
0.266153944077824
0.2793423276756903
0.2828858486996407
0.3715784269955025
0.3721000426353356
0.3710327111830291
0.3713033731740805
0.3708283546852146
0.3715196175345476
0.3710568782787512
0.3705934552716809
0.371532831841607
0.3719689734618552
0.3714552798857289
0.3720514428950777
0.3712050329448147
0.3718529375027281
0.3713462351357671
0.3717026435002039
0.3556964961735903
0.3560971310394945
0.355894280899155
0.283616139721841
0.3024622755820078
0.3447020483224792
0.2833497031410551
0.2305959074573804
0.2303646808546787
0.3027413670685018
0.3195012882376722
0.3450525272790447
0.3323765803149043
0.302647289042712
0.319203180651578
0.3194001338499004
0.3448736544130817
0.332054484748068
0.3322358664976155
0.2911235673113312
0.2906704898712686
0.2858653590782518
0.1219803110008163
0.2447769344953114
0.1363158608970945
0.2611930902026985
0.2689901955636683
0.1339054968030184
0.259784906327836
0.1257627498132086
0.2470429798147381
0.1325901051298726
0.1367866010100033
0.137644422142612
0.2741111997441503
0.2698218235732012
0.1378085195455888
0.1380830939876934
0.2745009765426594
0.2923640927879165
0.2921126841773966
0.2889549505777716
0.2883048618479223
0.2926406328850145
0.2914927642918352
0.2901439621409747
0.2867433555966037
0.1170446771594602
0.1561180468468035
0.1511334563415754
0.1914636896697073
0.172846493128301
0.1357075834225252
0.1719386097187829
0.2650103287694318
0.2057425373165049
0.2085146716269912
0.2661046499773148
0.2112867659130595
0.2093016745986867
0.1349215588000107
0.1694741553587682
0.1708296601739807
0.2549421321436939
0.2046469269589721
0.2007791099736619
0.1582060155983127
0.1286604334387055
0.1617463595019335
0.2531506841898389
0.1937106740970663
0.1992284689043877
0.1678140128598595
0.1308825526083354
0.1645762212304993
0.1371503516074147
0.1732429154970163
0.1739131041643747
0.1374301194809719
0.1750646484865628
0.1744551136625025
0.2726003695437105
0.2145712805606422
0.2136379269802438
0.2720081106827478
0.2118467992902053
0.2132521395242318
0.1379340064718281
0.1753650059272075
0.1754905762725441
0.1380255365133634
0.1758242845164299
0.1756780813809342
0.2755008785323499
0.2154822899752707
0.2753009673917359
0.2148142530767518
0.2153605573677509
0.2925396963170554
0.2918027008741209
0.2895689003968723
0.2875739473847634
0.2423867043667019
0.2283363483502855
0.2259107024980287
0.2625427364666522
0.2440366158417198
0.2452656926715792
0.2680906390033457
0.2510628614421274
0.2502641085704408
0.2582837302587599
0.2427368651408275
0.2413388503631198
0.2492209962730702
0.2305894491283973
0.2327171516418238
0.2736523521295935
0.2555393407779498
0.2551499813037335
0.2706076837786494
0.2518011271610224
0.2524918718867859
0.2757617111779913
0.2569672176817966
0.2748107515965537
0.2558718132538034
0.2561464055293566
0.2398728291202013
0.2233355367241984
0.2096159962656741
0.1890639781852868
0.2071573391253579
0.1863414268226943
0.204551925190346
0.2638186768221565
0.2474931637857791
0.2464169231032724
0.2245426362140638
0.2067378997318212
0.2256590263456516
0.2276458836631199
0.2076680321377452
0.2266821176978764
0.2671238165614954
0.2484845040480113
0.2494057972549353
0.2307956872817828
0.2106816841768071
0.2300935467254645
0.2285226773979259
0.2100174972213595
0.2293441588690858
0.2566650962240074
0.2382264149124501
0.2398386101397419
0.2233627175014319
0.2034732414767239
0.222067697905885
0.219176593598474
0.2021722925240315
0.2206906423635449
0.2512543522376466
0.2365206548913582
0.2346851526030928
0.2118298109405143
0.1957047268707904
0.2139185257098253
0.2175730963934687
0.1975674614220057
0.2158028889861783
0.2731459348622483
0.2542375558848408
0.2547149748036573
0.234635279981026
0.2142954587550115
0.2343060314642042
0.2335296563998143
0.2139838487085154
0.2339401091492702
0.2713445988059861
0.2537142067807136
0.2531318238567334
0.23143510813782
0.2123573080692618
0.2320344072303177
0.2330814573776049
0.2128274100780954
0.2325791826372724
0.2756552289025258
0.2567421353842055
0.2568723201566973
0.2156433854068532
0.2358769428183953
0.2356880723846931
0.2155761668791396
0.235797561805078
0.2750673558995829
0.2565780894672255
0.2563816630531928
0.234918211169241
0.2150254390146693
0.2351632166074129
0.2355480114096305
0.2152097825584133
0.2353746185429479
0.367242709023274
0.3648322393684975
0.3667858192880349
0.365146983183274
0.3677564936556672
0.366482009896073
0.365793072070812
0.3682471878387709
0.3597684272513773
0.3662614419516047
0.3649018774100904
0.3664962097836487
0.3648215007655269
0.3659099548670452
0.3640577978405038
0.3645085914291416
0.3654552431123012
0.3678215011211219
0.3695339517330038
0.3692800606514993
0.3675853140861553
0.367303962209852
0.3669610352080464
0.3686515259061389
0.3614007617138471
0.3603760736147829
0.3598407341089858
0.3621569007599951
0.3608779412039787
0.3593132149102183
0.3603993516321674
0.3597018477120663
0.3637216706114917
0.3612379538399704
0.3629703255856975
0.3621959674031629
0.3643662435967154
0.3635374719549838
0.364939380275159
0.362938571059794
0.2492290816966417
0.2357510536771516
0.2332761447827129
0.2653417948790922
0.2506531893925943
0.2491941654694801
0.2380545737327523
0.2560988206614558
0.2402391042206126
0.252026227699359
0.2697396994273211
0.2533132470011727
0.2755014709227956
0.2594437596714442
0.2585992191072423
0.2825600071459231
0.2645768285051533
0.2648823064496091
0.2642137711019468
0.2813213309938267
0.2638011041592169
0.2602353084588876
0.2781328247720004
0.2609651675422164
0.2306730945560701
0.2018066636276582
0.2199672094191065
0.2174200990154004
0.2147854552175062
0.2476196874135586
0.2619047672047829
0.2459440887267543
0.2329847357232286
0.2183313906538029
0.2170355380590875
0.2141366037753609
0.2156622331887627
0.2299217980688882
0.2422703596430524
0.2600777994268528
0.2441661610463516
0.2222396294032574
0.2087943056458834
0.2244173102370671
0.2125175861623707
0.2263764569119618
0.2282339527623454
0.2545309929572735
0.2722936359184817
0.2556575948705491
0.2194992640477769
0.2368152971070566
0.2206058702331233
0.2379185001703078
0.2216045985274646
0.2389473561820231
0.2576807154118502
0.2734285157328087
0.2567108798054775
0.2249322067352856
0.2423571933700827
0.241599969987679
0.2234022432968343
0.2407803747151662
0.2398986871746054
0.2651751705130997
0.2831318588913506
0.2653984606922221
0.2298221229328043
0.2468721624078316
0.2471493499877334
0.2302223706836848
0.2474085110588612
0.247609177338863
0.2633341503042425
0.2802178129981807
0.2628282458011303
0.2465539430517391
0.2289832367644583
0.2461960537836087
0.2286373766134334
0.2457908278436984
0.2453456881648768
0.2616505761556783
0.2795974289491174
0.2622657901923084
0.2268125020318775
0.2430600288463581
0.2437073301456277
0.2278146540391003
0.2443070483463372
0.2448500903625773
0.370407006313305
0.3685674407464522
0.3686422113105234
0.3703336057580298
0.3680237385407933
0.3697531668269696
0.3699422264676046
0.3681980290109091
0.3701011748675251
0.3684692701413885
0.3702319645449646
0.3683455207030802
0.2658235889415633
0.2836669144151301
0.2658773956864244
0.2655809021843503
0.2835118984218239
0.2657230000602191
0.2305559396295725
0.2479858204040011
0.2480305829957136
0.247771282048991
0.2304768270263874
0.2478963929487965
0.1537556209695688
0.1724558923199387
0.1701019942526077
0.1395053997067131
0.1585838248729475
0.1562810277887945
0.1417719448480589
0.1673849783011453
0.1370171293740372
0.1537477646386769
0.1724220460569315
0.1907038590062874
0.1902059295532744
0.1564880287429597
0.175180839422108
0.1747430083885054
0.156855646206113
0.1896217966404707
0.1714190849504095
0.1890229600794326
0.1561008460300456
0.173718762352419
0.1742515047779913
0.1556448524596031
0.1686936650959056
0.1858994898808084
0.1867643193782997
0.1539945173075497
0.1709632747517006
0.1717517017780907
0.1532910842674648
0.1883228145891868
0.1701933006653718
0.1876026487660254
0.1545962503454718
0.1731225579417196
0.1551623156542761
0.1724741007546768
0.1746583308470797
0.160077887795675
0.1765632847886631
0.145492156148994
0.1606120253199076
0.1437164520179921
0.1624483971346261
0.1783569922874035
0.1632364996328869
0.1799054208234994
0.1470151909172717
0.1655497218989672
0.1640784129924914
0.1484118183603072
0.1668520446803144
0.1848951903319059
0.1838520397029151
0.1516601769119764
0.1700870739978222
0.1525387056771137
0.1691234664928098
0.1813740778160809
0.1657696633451248
0.1826410141651052
0.1507136673044198
0.1668661818225921
0.1680528587593353
0.1496092880373107
0.1911907736479864
0.1735893370574045
0.1916042051447989
0.1574630181327295
0.175586165258788
0.1571666222724023
0.1759459941742303
0.1741937760267869
0.1920080437892602
0.1923478125684215
0.157712334566898
0.1765722991174341
0.1579498789590458
0.1762791543477311
0.1934340565779656
0.1748875964802884
0.1932162421240973
0.1584915420237491
0.1774769122946742
0.1772921324039176
0.1586383398454343
0.192677346790384
0.1746796093345573
0.19295188604563
0.1583360378551843
0.1768421155722138
0.1581478982717309
0.177077135355362
0.1752275541971745
0.1936408118662181
0.1938091806093961
0.1588701975129223
0.1776433962537059
0.1587585141565322
0.1777836481242802
0.175591839850634
0.1939666191739781
0.1940890173784645
0.1589605642056572
0.1780066726164595
0.1590404129834777
0.1779071849916276
0.1757952707861267
0.194364719171161
0.1943319894625729
0.1592089722623183
0.1782177771432151
0.1591879350017556
0.1781933044209038
0.1941942525878504
0.175745298323346
0.1942733364676618
0.1591527508401048
0.1780883520538962
0.1591022456640717
0.1781499309236119
0.3721158689297369
0.3715928438231362
0.3721004779686142
0.3715765746021567
0.3563007990906674
0.3027466811243623
0.3452438388694939
0.3194986076199896
0.3324619198783244
0.2926797963457239
0.2758268020685196
0.2156795748879647
0.2570255517272583
0.2359212040081714
0.3704660286522741
0.3687143142574041
0.3704509081281691
0.3686902932742564
0.3663436205923721
0.363149339651409
0.3630823762663414
0.3662983850035101
0.3704508228245719
0.3687086106870111
-0.001365580906927262
0.05195929234294695
0.07371869331681816
0.0325165253755573
0.05011264699293235
0.07173071044923369
0.03084441592191613
0.1206908880331048
0.1044811408145173
0.1231220372079329
0.1068250123675961
-0.00249855956505643
0.05059255590242415
0.08646885842688892
0.09091895645448871
0.05427066998220004
0.1012009904170541
0.06906817192144854
0.08630235049185481
0.08490187548137441
0.03107534198676165
0.01418947835125984
0.05902816681451994
0.05918648127838987
0.0572931144240534
0.05894434793954114
0.05867067258471205
0.05797420566757711
0.05803165308517189
0.09421966191217737
0.05900073378989998
0.05919835950083212
0.05883150544338297
0.05783967778912569
0.05831818938819607
0.05857472846739694
0.05824282882988902
0.05807194706591635
0.0340325694418436
0.03721143959433916
0.03669918754978155
0.03559891195405256
0.03568414515797959
0.03737004934123774
0.03784023998509551
-0.0004498688547288108
0.03720905726339851
0.05909598250605459
0.03737613707215364
0.05915367848275571
0.0376657021557574
0.03752050979216107
0.05576376687177073
0.03694979235490923
0.0566153477976891
0.03645217688742158
0.03704904965267261
0.05885816637185129
0.03687631869490648
0.05876285597213929
0.03654860697855879
0.03671499766389825
0.03545482206017719
0.05798269072613864
0.03546872000607224
0.03554381398164959
0.05800277579876732
0.03549866464296608
0.0361233411593808
0.03654810946070031
0.03601149534679521
0.03574177185948909
0.03813767681919435
0.03794791642056834
0.03513218839761477
0.03715119149932469
0.0380863612612057
0.03755557989850499
0.03795079757987095
0.05911317643358618
0.03792398186166557
0.03777503129527567
0.05917374234522014
0.0378762340899133
0.03790050324286877
0.05859015507242336
0.03781154066441023
0.03735594888671812
0.058263870547044
0.0376145204367848
0.03598086425953985
0.05839723016765781
0.03611039395934945
0.03639656057999319
0.05848574155732915
0.03624537800386158
0.03586838683831642
0.05817825398488542
0.03576482073871437
0.03560300390761354
0.05811951621755471
0.03567812610927606
-0.002107978274548887
-0.002432486272195844
-0.004948859461362129
-0.004923329804641111
-0.001765935900062911
-0.001424605821643821
-0.004052414515467622
-0.003834330569846574
-0.004250465257998496
-0.004422548017638769
0.0005335591111793018
0.0002599589423116565
0.0001783038930518465
0.0006558170286314096
0.0007850921599061442
0.0009664733045913949
-0.003046675964025961
-0.002750194313395453
-0.004797006042734966
-0.004872784309894754
-0.0007281274936697927
-0.001070992682389625
-0.003330671147244612
-0.003590905293957261
-0.004696577743913637
-0.004572340944179628
-0.0003804566625882371
-5.721274096424758e-05
0.001106231278526501
0.0009308802883292779
0.001138866934814136
0.001104262560209332
0.05682357337985931
0.09664628442496571
0.05854452673489885
0.06032852688610962
0.09841345545260782
0.05965660737686006
0.016700713808902
0.03273234211344768
0.01557717744088737
0.01747243080719899
0.03703186921626504
0.01721920094259398
0.03687173826534521
0.01674558506564651
0.01698121103532772
0.01524365789200667
0.035611631241659
0.01526344548990056
0.01536362822037362
0.03563922076311912
0.01530248515225484
0.01772181735375909
0.03754450687283718
0.0179808874517339
0.03768731286880714
0.01847709468331958
0.01822818385020658
0.01595477511473536
0.03625733383521446
0.01613159941460928
0.0165289423500553
0.03639155934377906
0.01631958502155115
0.01580060231710322
0.03590457828844089
0.01566048088260527
0.015442167001626
0.03581867699210238
0.01554333209408806
0.01925552613504257
0.03810317144348098
0.01910158310908923
0.01870391338779863
0.03805696943271113
0.0189206777008194
0.0175605921300395
0.03596292204864578
0.01822399751740083
0.01904610005416316
0.03665800199630349
0.01870695352982297
0.01935504343085805
0.03800465466803528
0.01940381288486644
0.01926338567270046
0.03780775255603647
0.01937438267442471
0.01524537472178673
-0.004947701003167329
0.3167109353546597
0.3184750403402088
0.3163489706854511
0.3144681403639025
0.3147045247379598
0.3139083089787791
0.3127486945375804
0.3128166688753718
0.3186116918738108
0.319882062465379
0.3181283268039979
0.3175505677899823
0.3235281274979475
0.3217884746914517
0.3197689042380989
0.3216842799858726
0.3250350522521101
0.3265087895518089
0.3248717106693327
0.3233418609679599
0.334608030357168
0.3359303123245366
0.3342290843823922
0.3328557137516414
0.3281888360873499
0.3297247983178536
0.3279997729438964
0.3270401360382895
0.3331889433015425
0.3315296461532907
0.3295984423653191
0.331339563804813
0.3610874035011992
0.3614364460329975
0.3643009856393738
0.3636857801649463
0.3654749767154478
0.3652685486569912
0.3623040558801951
0.3621388537269259
0.3619672459441374
0.3617436588649677
0.3647251129905336
0.3514364563748341
0.3523037096332004
0.3501420552452075
0.3492196792842604
0.3502911855561854
0.3489789765711435
0.3471843448495037
0.348137672262156
0.3380023416441343
0.339462845287197
0.3375223086044566
0.3365475515301767
0.3423653003641724
0.3409836975801883
0.3388565224140168
0.3402293561005204
0.3469920942303777
0.3459864691996428
0.3439574009472123
0.3450248371303745
0.3435999228063136
0.3448655171005393
0.3427798388331559
0.3414821065337898
0.3527474062307093
0.3540154450290419
0.3551431483559339
0.3519548290554768
0.355813846688381
0.3552338637777715
0.357677761520633
0.3581628358585707
0.3604712528156392
0.3602032988136456
0.3630385787595719
0.3629010310475416
0.3598190493532215
0.3593194451625287
0.3620883386986766
0.3625663813029863
0.3570335615373706
0.3576213787022531
0.3593579054252929
0.3602430570194567
0.3582441935307825
0.3588099673950925
0.3615730410170089
0.3609650487829079
0.36623877986644
0.363003187614114
0.3629127924052218
0.3661562263461417
0.3656491546153101
0.3624433833786919
0.3625809415724411
0.3658068380085544
0.3627000322521164
0.3628139023238819
0.366059564576503
0.3659401575254297
0.3663647436109689
0.3632076845814078
0.1922122317513119
0.1514120988651715
0.1722169179384011
0.1379837275586787
0.118853278212044
0.1960139310287665
0.1996675965890876
0.1561404982126935
0.1765712406693935
0.1806187953090256
0.1603485696633463
0.1427483233539177
0.1470947551403133
0.1238253671604825
0.1284380857945125
0.08177710942335592
0.09759750400644665
0.08695142065015098
0.1027901601248209
0.1072351803820643
0.09134767036540273
0.2030930012146746
0.2063120067405881
0.1545754203512007
0.151026813050973
0.1843644277400898
0.1677648104669932
0.1642855071618321
0.1877989412743695
0.1393155558141979
0.1361322573679681
0.132455188270971