/*--------------------------------*- C++ -*----------------------------------*\
  =========                 |
  \\      /  F ield         | OpenFOAM: The Open Source CFD Toolbox
   \\    /   O peration     | Website:  https://openfoam.org
    \\  /    A nd           | Version:  7
     \\/     M anipulation  |
\*---------------------------------------------------------------------------*/
FoamFile
{
    version     2.0;
    format      ascii;
    class       surfaceScalarField;
    location    "0";
    object      phi;
}
// * * * * * * * * * * * * * * * * * * * * * * * * * * * * * * * * * * * * * //

dimensions      [0 3 -1 0 0 0 0];

internalField   nonuniform List<scalar> 
36622
(
0.0002909096234914976
0.001319878054116071
-0.001661107222303735
0.001552391956652874
-0.0003122750613529353
-0.001189797350604088
0.001323770985534732
-0.001668219620403212
0.001560113619128252
0.0002716934145092021
-0.0011964487752891
0.0002648654480399109
0.001258793185745567
0.001164475973861468
-0.0002854976532984962
-0.001082758900242823
8.867691622554993e-05
0.001299130775079359
-9.606961197994841e-05
0.001229143436059174
-0.001369463775998665
-0.001151417739385027
-0.0001187313827076835
0.001222146699293397
0.0001111309890582267
0.001294078887550997
-0.001363157808475048
-0.00114546738471985
-0.000155499584639582
0.001285511832154209
0.0001461327944902287
0.00120984143944792
-0.001352893752597221
-0.001133092728855654
0.001219198156698306
0.00129194229856863
-0.0001277084586492223
-0.00136106906851371
-0.001141094310820217
0.001262410376074471
0.0002485526052566632
0.001171610986720787
-0.001093937534491405
0.0002023454308641779
0.001188253810707694
-0.0002172315966018357
0.001271734371772669
-0.001336621051694631
-0.001108480965047668
0.00128284733095782
-0.0001668176886047059
0.001205914089225752
-0.001350245461250519
-0.001127197854975523
0.001193494727456348
0.0001902895458368114
0.001274935790107927
-0.001339891086298091
-0.001116483546247804
0.001300781233277197
8.225490023214758e-05
0.001231321556193982
-0.001371059975111451
-0.001154620798375216
6.315194053882166e-05
0.001236419668946915
-6.946275618593556e-05
0.001304596677716463
-0.001375754855099154
-0.001158950675917844
4.062075336758956e-05
0.001308581185752822
-4.620964710666576e-05
0.001241532047158387
-0.001380248047007363
-0.001164276292164112
0.001237970697171337
0.001305813282708311
5.750279041697678e-05
-0.001376921089097444
-0.001161213740667532
0.001309451959730057
3.543633267103641e-05
0.001242595278633498
-0.00138107181165414
-0.001165791006020129
1.990810309729869e-05
0.001245368891651214
-2.504937502134879e-05
0.001311683362590135
-0.001383582461944215
-0.001168328520374182
0.001249770345471366
0.001314607367783406
-4.953116994023074e-06
-0.001386902679557811
-0.001172521394851565
-5.21851621245964e-10
0.001246455865701229
1.492579557514847e-05
0.001312506311677356
-0.001384415720460255
-0.001169564149402325
0.0001600558079732941
-0.0008465654596039997
-0.0001717281960236715
0.0008582378476537684
-8.769271483014423e-05
8.20144579588013e-05
-0.0008775867462937525
0.0008832650031645029
-9.371339013556029e-05
-0.0008753405312633961
0.000881361206565375
5.759704702376545e-05
-6.20299052490539e-05
-0.0008868086337969568
0.0008912414920220754
5.335465465865027e-05
-0.000888268361208713
0.0008925107535690646
0.0001001253172507501
-0.000106953263589946
-0.0008703744744435036
0.0008772024207824594
-0.00087293792027095
0.0008793498473786641
-0.0001493866177023941
0.0001395596677835442
-0.0008545769701469263
0.0008644039200652236
-0.0008507175986804697
0.0008613867889420922
2.768158803085294e-05
-3.101669139592217e-05
-0.000895649826022408
0.0008989849293869636
2.441601138739036e-05
-0.0008963538571414239
0.0008996194337805409
-4.929153678639393e-05
4.538402758667138e-05
-0.0008908597499356042
0.0008947672591361854
-0.0008896177169845356
0.000893680834848626
2.981797294211207e-06
-5.949149576425754e-06
-0.0009000959506469831
0.0009030633029290832
-0.0009005083475505528
0.00090346829760336
2.184723743253834e-08
-2.12141620312516e-05
1.807310403943935e-05
-0.000897547128153638
0.0009006881861455277
-0.0008969839008725374
0.0009001857502213089
0.000160416002444536
-0.0001721573077444155
-0.001649365917016651
0.0001693572325006925
0.001564784017484746
-0.0001817492933427466
-6.09657006830246e-05
5.647986575195965e-05
0.00163372944684969
-0.001629243611919182
-6.563046473944079e-05
0.001631215055399982
-0.001626550291347833
7.053571418996035e-05
-7.565845889527013e-05
0.001625633432381211
-0.001620510687676036
0.001628535913353458
-0.001623630663911662
0.0001497589727307134
-0.001657562590702263
0.0001581057275899346
0.001571365124028156
0.001675009519204936
0.0001398661687616872
-0.001665116715239084
0.000147664583690536
0.001577661672488569
-0.001567220528591034
-0.0001380991990927883
0.0001291636331143822
0.001589029391376718
-0.001580093825397825
0.001583477487987468
-0.001573912103400249
5.219139427395706e-05
0.001636041350952848
-0.001631752879480237
4.804977771659749e-05
0.001638198789493965
-0.001634057172939988
-4.406931794054949e-05
4.020845683968302e-05
0.001641998951837776
-0.001638138090736543
0.00164017154349367
-0.001636191083727002
-3.145667828107434e-06
0.001654534629234142
-0.001651388482752026
-4.786543563214428e-10
-6.29947910282982e-06
0.001653989520801117
-0.001650835709531139
9.467026578395834e-06
-1.265890920369363e-05
0.001652440397387675
-0.001649248514761998
0.001653246347174324
-0.001650078799706927
0.001547100294848266
0.0001896254496280896
-0.001533239879532445
-0.0002034858649443386
-0.001758417700395009
0.001026409112797969
0.0002644558708856788
-0.0002837729882509916
0.0007513257049622503
0.0003642421810792574
-0.001210273633480208
0.001025623576757443
-0.0003909095299206367
0.001438484824526618
-0.001037825325647259
0.0003594558333289771
-0.0003856880970800382
0.0007339898709557121
-0.001108417106082895
0.0002714482442479083
-0.0002912430374897622
0.0006117141581490395
0.0001564074691508359
-0.0001678236820189189
-0.001609087926982698
0.001838884801879397
-0.0001518501345592217
0.0001412797485869123
-0.001273009251294538
0.001053782762369591
7.8976605605441e-05
0.001606253086224264
-8.471572234883085e-05
-0.001600513969481052
0.0001101601180739461
-0.001835349201139176
0.001071270740914416
-0.0001181668542925037
0.0007720851964434336
7.348626672895841e-05
-0.001603597588120993
0.0001025013824741485
0.001073332743185829
0.0007732107942768585
-0.0001628601228843674
-0.001270264868207663
0.001052178741593449
-0.001611706618728163
0.001842182739825337
0.0001312504843320715
-0.001275445197502757
0.001054998340651624
-6.826034442134485e-05
0.001614163121747984
6.323922507695991e-05
-0.001609142002404548
-9.520988787410478e-05
-0.001845232176865161
0.001077033522848196
8.82055115128343e-05
0.0007752030303784321
-0.001606480696435166
0.001075256814358385
0.0007742174200518506
0.0001215839713470261
-0.001277807421172058
0.001056404879015976
7.664401695090445e-05
-0.0008796985047606793
0.0008850689457656849
-0.000881671979521123
7.153625955518056e-05
0.000886779736913712
-7.486862029608105e-05
0.001074041243460833
6.987347223237231e-05
-0.001069046095398605
-8.012177508231749e-05
0.001071924321320602
-0.001066671166538106
-0.00149112984881713
-0.0001487398230455373
0.0001390915583364797
0.0006231913672266979
0.0001970457507918725
0.001487322427295032
-0.001067280292099662
-0.0002105563144246279
0.0007442101195509563
-0.001150741691111504
-0.001069682807636244
0.0001842452581116346
0.000745288508808508
-0.001153935057323002
-0.0001589519625691713
0.0006221940355374578
8.568827585650479e-05
-0.001061395881926231
-9.157268604056269e-05
-0.001064116306873983
0.0001299762399582653
-0.001494708139064433
0.0006241249526717254
0.001498040263017085
-0.00017218180534041
0.0001606915531298738
0.0007472444782978934
-0.001159753245651524
0.0001213098526510681
0.0006250346707864927
0.000746255732896896
-0.001156976097892464
9.279356417523793e-05
-9.915665647061033e-05
0.001611916070894446
-0.001605552978599249
8.675478603426566e-05
0.001615710745974412
-0.001609671967838425
-8.107417110971613e-05
0.001622554521069733
-0.001617138808860411
0.001619227551983694
-0.00161354693706748
-6.667245952618203e-05
-0.0008852244104464212
0.0008898669647194368
-0.000883515987759607
0.0008883797877821578
6.513430478635274e-05
0.001076009908349792
0.001077859836091479
6.060721187467175e-05
-0.001506741684416983
9.770725305337206e-05
-0.0001052102290355595
0.0006274360265965262
-0.0001294628315499244
0.001509223870336662
-0.001081173764422128
0.0001199347479932154
0.0007506011156949481
-0.00116912313805124
-0.0001393834216873446
-0.001079572491402294
0.00074981289270935
-0.001167061495603664
9.051696572547494e-05
0.0006281457964368324
-0.001504050311254248
-0.0001130742624564874
0.0006266899342175984
0.0001498017015424554
0.001501159834963613
0.0007481294819958872
-0.001162389557031852
0.0007490194424200168
-0.001164791637746623
0.0006258794373823773
-5.629153481971887e-05
5.215129322773795e-05
0.0001745285667132287
0.001827467699811453
-0.001599997532178246
-0.000186731822423981
-0.00126426636845508
0.001048999456532424
0.001603244521180302
-9.077665792238195e-05
-0.001597183585612454
-0.001831538592505534
-0.000126619480106842
0.0007709451229085325
-0.001267436391711713
0.001050810764192807
-0.0001354959288255963
0.0007696729819730805
-9.714062566412047e-05
-0.001593633564449962
0.001823090512395483
-0.001596563813456542
-0.0001997403067195292
-0.001260995857593267
0.001047477642941496
0.0001449175544741054
-0.001818425304402225
-0.0001548598253988989
0.0007669716933976089
0.0001038979720427435
0.001592865111723348
-0.0001110266230530622
-0.001585736460712336
0.0007683958311559443
-0.00158980646709248
-0.0002134039559467139
-0.001257346989378705
0.00104545044590495
-0.0001142539816048309
-0.0008676255741177882
0.000874926292128762
-0.0008646928983273478
-0.0001220721624108885
0.0008725110791301904
0.0001116502828948898
0.001056093411039315
-0.0001192831280977181
-0.001048460565836378
0.0001045075453614973
0.001059160786616968
-0.001052018049087866
0.0001698285354414877
-0.001478890262411941
-0.0001813992939434831
0.000620086546465619
0.001483237867197992
-0.0002249778934578375
-0.001064743300255839
0.0007431709399681816
-0.001147243927885553
0.0006211765197817453
-0.001062025874715537
-0.0002402765769152996
0.0007420088310292577
-0.001143574535279648
-9.78436167030687e-05
-0.001058472369603906
-0.001055361946068587
-0.0001937871357835621
-0.001474220816015721
0.000618983083726874
0.001469249673327706
0.0002567013416549149
-0.000274218677532785
0.0007396828199677148
-0.001135321746387563
-0.0002070388754030847
0.0006178085146034927
0.0007409111736036148
-0.001139546438288433
-0.0001059603502622896
0.001607915994204331
-0.001601112300417709
-0.0001131640969675285
0.001603601715588644
-0.001596397968886805
0.0001209145992859387
0.001594168255027464
-0.001585919221204202
0.001599064255002652
-0.001591313752693193
-0.001565209030933298
0.001782683717220035
0.0002971491866863078
-0.0003176584348641891
-0.001229552584322704
0.001032587146213691
-0.0001546195613314078
0.00157059137925579
0.0001446236050390277
-0.001560595422963711
-0.0002156430503507522
-0.001789675279111164
0.001044631828192806
0.0002017090522797214
0.0007589774489890083
-0.0001653375601114485
-0.001554491032170314
-0.0002305916279482653
0.001040556188327335
0.0007570761064722055
0.0002779097126325789
-0.001235129331149635
0.001035284905319666
-0.00155956247677304
-0.0003401337552152952
0.001775145440616976
-0.001223663171809968
0.001030555528305441
0.0001770166522768713
0.001553474720996933
-0.001540865923650152
-0.001767109971911151
0.0002468698958563978
0.001031476539060399
0.0007532194078723285
-0.001547883384622586
-0.001217190573335556
0.001027663748257648
0.001036161013272499
0.0007552626952346738
0.0001304905197442997
-0.0008581875120912852
0.0008672566601264395
-0.0008615479452572278
0.0008699663025834521
-0.0001275166183764003
0.001052865318460114
-0.0001363700201781282
0.001049409590122626
-0.0002533638030017484
-0.001452081829844464
0.0002366877204582546
0.0006141809422348359
0.001445543239646751
0.000335566155131816
-0.001041895069045278
0.0007349656157915874
-0.001114724108205314
0.0006129100821926106
-0.001045779932233462
0.0003134582439317055
0.0007361974047442555
-0.001120391391171052
0.0001459889391498241
0.0002213179582434734
-0.001458212709000587
0.0006153949591133633
0.001463906065315168
-0.0002931478786112059
0.0007385580591710009
-0.001130669604957044
0.0006166372028818341
0.0007372966013176993
-0.001125789354893936
0.001802344221117312
-0.001580345901621806
-0.0002602124372248088
0.0002435209945788647
-0.001245014044433763
0.001039707167582698
0.0001353812082512993
0.001575589488517865
-0.001566347091735607
0.0001888183627882654
-0.001796241292577156
0.0007606714162179197
0.000176729890202693
0.0007624146445960504
0.0001267100477596603
-0.001571674741144943
-0.001240184246406857
0.001037229717729751
0.0002280585243308523
0.001808077946207209
-0.00158476541621958
-0.001249375933356181
0.001041525873604735
-0.001813413666837584
-0.0001654732200647605
0.0007655546918920614
0.001588964038373292
-0.0001186392073570916
-0.001581351454073616
-0.00125357161108358
0.001043776550981865
0.000763972670264392
-0.001576694575831894
-0.001620459564694386
9.487883413899577e-05
0.001853078417497398
-0.0001034388682887177
-0.001283678180454561
0.001059619361802703
-4.93415316460304e-05
0.001622245853971702
4.502037555205898e-05
-0.001617924697877985
-0.001855281185927451
-6.881919103655164e-05
6.279287656601722e-05
0.001082883839047783
0.0007784236613504778
-5.379967688514859e-05
-0.001616001419471283
8.656237152124891e-05
-0.001285384459788896
0.001060665590424308
-7.503772785747794e-05
0.001081603209384985
0.000777693744918005
-0.001618531061456678
-0.0001123621766205627
0.001850671038681356
-0.001281909463675125
0.001058692794771811
5.843536169074667e-05
0.001616422926019746
-0.001611619062638374
-0.001848064140642475
8.150363949326421e-05
0.001078684081275836
0.0007760819313797605
-0.001613895376665357
-0.001279891947881141
0.001057472527962738
0.00108020140735607
0.0007769355429460753
-2.931073818570084e-05
2.585362641721605e-05
0.001647785281378985
-0.001644328169610436
-3.284283309506749e-05
0.001646545428250846
-0.001643013333346488
3.647767880787292e-05
0.001643657190161747
-0.001639926412134631
0.001645178609641152
-0.001641543763936024
-7.853908136009172e-05
-0.001625356386725726
0.001859134328260223
7.071139530064575e-05
-0.00128829768668211
0.001062347431206941
0.00162386768788244
4.084259202493344e-05
-0.001619689904359156
-0.001857300487462117
5.696665523690436e-05
0.001084058061005947
0.0007790686477778271
-0.001286869835255631
0.001061460325812104
3.677460725798088e-05
-0.001621288401972907
5.129453715046906e-05
0.001085122243958792
0.0007796842023727652
-0.0016266954180387
0.001860801254834036
6.311430028942869e-05
-0.001289534396079827
0.001063025654286824
-3.281973252477025e-05
0.001627912203069019
2.895034930704814e-05
-0.001624042819851661
-4.578002193810298e-05
-0.001862304566783188
0.001086958207138467
4.038477903935494e-05
0.0007807416025432466
-0.001622740543319893
0.001086089312352035
0.0007802264576761878
5.566952627748781e-05
-0.001290725369462296
0.001063777779736132
-3.443944285400633e-05
-0.0008948663086360751
0.0008982890600892662
-0.0008940030517312693
-3.796733848714174e-05
0.000897530947360266
3.367786370238101e-05
0.001087503926995756
-3.712372969748113e-05
0.001088473912537184
3.032619511720364e-05
-0.001521844423000442
4.697258221006112e-05
-5.26304753618797e-05
0.0006318524901233752
-6.225044381479539e-05
0.001523062377713408
-0.001090146544698503
5.491598992181813e-05
0.0007551647405352329
-0.001180746119656918
-6.974561298114634e-05
-0.00108935002815922
0.000754711210498325
-0.001179710436189003
4.143935765304456e-05
0.0006322417451084597
-0.001520494636853781
-5.844295439957756e-05
0.0006314408072449133
7.745475131808595e-05
0.001519012222100335
-8.537544041410596e-05
0.000753735128768324
-0.001177322734782332
0.0007542499251795255
-0.001178561511180669
-6.442487815014412e-05
0.0006309910941030572
-2.706547929890841e-05
2.387714172129349e-05
4.161418170081429e-05
-0.0008920047515897368
0.0008957745974719242
-0.0008930501003905937
0.0008966969435969733
-4.068524273193924e-05
0.001086445352072325
-4.436412061837885e-05
0.001085282087265039
-8.362849838203079e-05
-0.001513641282173205
7.699652686840071e-05
0.0006294135037439281
0.001511525658901369
0.0001108191322202007
-0.001082649759724823
0.000751302283645075
-0.001171062567056672
0.0006287964092414658
-0.001084022901489034
0.000102026297879546
0.0007519928739310636
-0.001172818420291226
4.818561476245317e-05
-0.001515594302602054
7.060703257191311e-05
0.0006299790452971267
-9.35695581892861e-05
0.001517378124800719
0.000753205073034002
-0.001175943727996514
0.0007526065474282273
-0.001174462023093569
0.0006305101788153294
2.247468464324343e-05
0.001648888518032165
-0.001645509576263581
1.915216178136418e-05
0.001649884574357469
-0.001646562051499419
-1.588544577835716e-05
0.001651624665363528
-0.001648398128793954
0.001650782039246598
-0.001647515323250661
-0.00163088713747579
3.420063223235245e-05
0.001866064791795893
-4.123947211018824e-05
-0.001293798638783905
0.00106565982433954
-1.778824024071991e-05
0.001631753637873518
1.417513983712352e-05
-0.001628140537469739
-0.001867210588828454
-2.481536615006691e-05
1.977386355129005e-05
0.001089717018749156
0.0007825350726778494
-2.144692748057319e-05
-0.001627228450250904
2.724443566818339e-05
-0.001294914993255705
0.001066414238837583
-2.991985796478372e-05
0.001089096597654832
0.0007820726859406222
-4.839761878150855e-05
-0.001629985824901825
0.001864904114470362
-0.001292808420299675
0.001065048277392623
0.001628998620461427
2.516667768370528e-05
-0.00162521494884317
-0.001863665475387827
3.510816138059624e-05
0.001087741993038954
0.0007812001000015209
-0.001291768225284221
0.001064373277831449
-0.0016262660747116
0.001088447235138276
0.0007816451827333097
-0.001633518806611512
-2.036043311429532e-05
0.001869705387522191
1.353495193481959e-05
-0.001297622572494252
0.001068261472764392
1.060037009019289e-05
0.001632623532630259
-0.001629048762887571
-0.001868413596589406
1.478581250354502e-05
0.001090345684613935
0.0007830559630156368
7.053308381474819e-06
-0.001629971744916629
-0.001296158142088715
0.001067252080659422
9.836520997560248e-06
0.001090999788561899
0.000783654890452332
-0.001634377293210002
0.001870987286426443
6.742059384321444e-06
-0.001299109355391012
0.001069292254715867
-3.521307104999287e-06
0.001635029683943762
-0.001631506140074299
-2.236765073257372e-09
-4.908713717784162e-06
-0.001871996249583185
0.001092135059194885
0.0007847768148431428
-6.910738445475079e-09
-0.001630845291948754
0.001091637478036265
0.0007842776156531438
-0.001300318825129077
0.001070115817838387
-2.149898831138183e-08
-8.929953090183615e-06
-0.0008995774177968643
0.000902558221306544
-0.000899053861486978
-1.193666624049033e-05
0.0009020605746332512
8.739729818972373e-06
0.001093295282364079
-1.168932757428294e-05
0.001093926083823839
5.813434550246223e-06
-0.001530103042812637
5.03632910461937e-06
-1.008585504543411e-05
0.0006350566181001289
-6.643775512735792e-06
0.001530935950925598
-0.001095040171513227
-0.001189483854565203
0.0007602565697148354
-2.471904828455977e-08
-1.334060580470991e-05
-0.00109455004533963
0.0007594973227285094
-0.001188353489925645
0.000635462082240662
1.850218933920005e-09
-0.00152905848936384
-1.516048790655483e-05
0.0006345557044173038
2.00754501955926e-05
0.001528015718966931
-2.686746240146168e-05
0.0007577293816369625
-0.00118565780603914
0.0007585764183224789
-0.001186973979492622
-2.027735011387192e-05
0.000634078719671466
-2.900867234243151e-06
-4.245103493917298e-09
1.498098474499557e-05
-0.0008980649440836036
0.0009011570633739583
-0.0008985559003523978
0.0009016002188504336
-1.467076328967717e-05
0.001092698454453762
-1.768987040749872e-05
0.001092115704766761
-3.602048272030124e-05
-0.00152517420227143
3.069584783520616e-05
0.0006329517089968401
0.001524167651548991
4.774038448892499e-05
-0.001090862146141793
0.0007555868243225816
-0.001181716724305549
0.0006326026255908083
-0.001091514353324367
4.06819613318453e-05
0.0007560248215774946
-0.001182626247381427
2.075698860357052e-05
-0.001526119601505683
2.54520644986599e-05
0.0006332984407476632
-3.373286999619512e-05
0.001527045958943552
0.0007570406945799511
-0.001184522791484321
0.0007564875964220584
-0.001183542401844141
0.000633664772961782
-0.001215071658305924
0.000310120026550398
-0.001146493323424765
0.00118150779617329
0.001202704050861345
-0.0003327668918548584
0.001153656393775431
-0.000295503761382525
0.0002750745842559545
0.001215240799487447
-0.001089674830398694
-0.0003357858777183397
0.001218957887051377
0.0003128481024632225
0.001157834224700408
0.001255619149959854
-0.001314482640709446
-0.001079554672714216
-0.0003049137145424396
-0.001557638036209547
0.001525130139579769
-0.0003605154147134084
0.0002891125672457609
0.001183348106629136
0.001216261012811175
-0.001086409094066473
-0.0003162298536134004
-0.001260429447365681
-0.001219258945859155
0.0001043911883277456
-0.0001125163755202241
0.001212368382908378
-9.979581069408786e-05
0.001221419054194485
9.24983943095212e-05
0.001245238852021858
-0.001160229714761088
0.001227082746386679
0.001297651718257548
-0.0001030212919978842
-0.001367382918438992
-0.001150399866194698
-0.0001127162029190705
0.001262030908113976
0.0001044161752886801
-0.0001213285449527139
-0.0001074344176212221
0.001245231409218526
-0.001159200029909324
9.685135392411485e-05
0.001213182375522217
-0.001258555494147501
-0.001216650663034074
-0.0001207566580839665
0.001210437188439312
0.000130405374033687
0.001256720931484278
-0.0001398601433464678
0.001224540339852377
0.00129576415301898
-0.001365548448577261
-0.001146646347247251
0.0001154195079382572
0.001214138038692654
-0.0001237812194712078
0.001242434633434585
-0.001154132073051237
0.001242418813837381
-0.001155320233552775
-0.0001296708804248015
0.001209508324293986
-0.001204691882930048
-0.001250106682422561
-0.000158782600587823
0.0001486354235293211
0.001203949884812262
0.0001516945136193892
0.001201333966408553
-0.0001619864086185765
0.001235891261759862
-0.001141421501022878
0.00128764302181597
0.001213026784055279
0.0001361023107273879
-0.001355983404875113
-0.001134655917240067
0.0001715380287361346
0.001247755281151439
-0.0001832722602770343
0.0001418408167735787
0.001235803711406793
-0.001142998875690102
0.0001603624092306155
-0.0001698083020451348
0.001202767959622398
-0.001208199315538772
0.0001387676054407229
-0.001252506891181678
0.001206307656341324
0.001254591074542577
-0.0001498821257540055
-0.0001326061985494984
0.001211107845439654
0.001239273398076778
-0.001149613965881192
0.001290039342091933
0.001216432620187682
-0.001358343253258395
-0.001139734856954235
0.001239318899838752
-0.001148244255076838
0.001207359253273432
-0.001226386165910824
-0.001167222816243499
-0.0002700111118635377
0.0002523567419827649
0.001187600180219997
0.000257496517077445
0.001161147734616783
0.001220020754790594
-0.001101180046166689
0.001177281550859793
0.001265453737427678
0.0002311586736514411
-0.001328649881204102
-0.00109669147548222
0.00029215497301088
0.001222803316534057
0.0002728286458051793
0.0002403209498557924
0.001219391150420937
-0.001103984662032165
0.001185861933182701
-0.001229967227478556
-0.001173583650745587
0.0002360025258594604
0.001190352510011057
-0.0002552213905532958
0.001233226878820373
0.0002386822908289279
0.001183373516430394
0.001268894580938251
-0.001332239818296137
-0.001106101202036877
-0.0002252037501990417
0.001178784215396475
0.0002105383684726228
0.001223715719425852
-0.001116100181332908
0.001224108990605984
-0.001113680860774184
0.0002209270802918322
0.001191957208617788
-0.001193404060893769
0.0001812510918829595
-0.001242433426143415
-0.000193691395225957
0.001198901857018831
-0.0001731069892493586
0.001197279370170597
0.001232024391092094
-0.001135335849684838
0.001280479555656447
0.001202248542337968
-0.0001773837435861347
-0.001346759958254205
-0.001125402084764061
0.00124507064822589
-0.0001958642791683329
-0.0001846863978516773
0.001232174364115582
-0.001133519460768345
0.001200221197136172
-0.000209142023237615
-0.001188712087397008
-0.00123945222879864
-0.0002067442247864595
0.001196203101308274
0.0002234871239775542
0.001236511057574766
0.001277543324376312
0.00119771761421848
-0.001343806894288583
-0.001118548242068244
0.0001973792974016954
0.001184231641570295
0.001228216331991669
-0.001124353112396795
0.001227971191356397
-0.001126447054842899
0.001194741308228618
-0.001265047634794655
-0.001225495025017997
-8.937993278187352e-05
8.24120352144594e-05
0.001215601093700252
8.545885824930632e-05
0.001223650719668731
0.001247713169221851
-0.001163543119564844
0.001233081970415659
0.001302066226940015
7.545523798778153e-05
-0.00137285377757723
-0.001155494757539183
9.649650870944782e-05
0.001263663511069407
8.883425714038408e-05
7.872394543544266e-05
0.001247743076483486
-0.001164436961762844
0.001214893703984593
-0.001266453522775654
-0.001227388508919983
7.54803332868149e-05
0.001217095553156236
-8.148188597111678e-05
0.001267635812191159
7.433999666458363e-05
0.001234931027600996
0.001303492452277135
-0.001374227102530526
-0.001158203895559715
-7.21784626991018e-05
0.001228949684222299
6.590111959801666e-05
0.001249952253945322
-0.001168027917359065
0.001249893512091962
-0.001167244086015617
6.897599818890418e-05
0.001217705371707196
-0.00123317142145796
-0.001270830580635468
5.021562015340487e-05
-5.635166264587256e-05
0.001220603648500771
-4.80293228463655e-05
0.001234271296280844
4.241093261464523e-05
0.001253661127562559
-0.001173732847866767
0.001307779784768096
0.00124049901308497
-5.159168498904423e-05
-0.001379182499431395
-0.00116371426054671
-5.419800433773689e-05
0.001271668133418086
4.78043795839836e-05
-5.384952721773302e-05
0.00125347219898946
-0.001173043631326689
-6.072468697988232e-05
4.436955455261147e-05
0.001221060125819336
-0.00123184981276665
-6.248570825983443e-05
-0.001269827898592346
0.001219514070277428
0.001268830392951202
6.744758666665236e-05
5.975872694863619e-05
0.001230539449193027
0.001251798006480127
-0.00117038178032717
0.001306753256876794
0.001239214791253299
-0.001378204094755058
-0.001161852847959838
0.00125190355455507
-0.001171090910729689
0.001218990296805059
-0.001236338948818399
-3.850790658489239e-05
-0.001273249396630319
3.287609585402621e-05
0.001222411735876519
3.683905148225484e-05
0.001235375687282035
0.001254994645404744
-0.001175346491835984
0.001310166172441057
0.001243485875705984
3.010168849325264e-05
-0.001381972684010049
-0.00116634471996572
0.001272514647102647
4.155858028501249e-05
3.144418907504221e-05
0.001255322147885141
-0.001176100061869862
0.001221983757054069
3.541355898689349e-05
-0.00123733566957022
-0.00127403699267777
2.721418535069079e-05
0.001223235933954924
-2.937152969586107e-05
0.001274821565099608
2.340298412180773e-05
0.001310955983564146
0.001244441374406992
-0.001382722982295772
-0.00116762206221616
-2.605136483716e-05
0.001238320229290075
2.081838206302123e-05
0.001256969511446553
-0.001178373395379668
0.001256477787750985
-0.001177464649534961
2.173079581590312e-05
0.001223710190653853
0.001278611625003882
-5.80391339508584e-06
-8.876997881350818e-09
-5.364570153626449e-06
-0.001242477139778491
0.001226146762154215
-1.225235319549444e-08
-0.001277809774059358
-0.001241641297935569
-1.080605755876351e-05
0.001225783203998415
-5.16624459244397e-06
0.001259452941746374
-0.001182167787964557
1.13188032296049e-08
0.001248831737765119
0.001314072837013687
-9.914799625093873e-06
-0.001386230645527667
-0.001171712246626848
-1.163772085606377e-05
-1.039135714785389e-05
0.00125918776107745
-0.001181531109457588
-0.001276760471590239
-0.001240540028853469
-1.620240521911694e-05
0.001225074275598996
1.749574253373177e-05
0.001275754741766779
0.001247627847671328
0.001313301152612025
-0.001385357239174989
-0.001170560765169815
1.553706162643035e-05
0.001239402070264435
0.001257970306182457
-0.001179584744343641
0.001258492997698909
-0.001180586169475867
0.001224527060525981
-0.000184517100824162
-0.0008421109754311393
0.0008548998802264144
0.0003048169682403559
0.001015113962048853
0.0007472940516923063
-0.001739048374261344
-0.0003281766077200319
0.001020995979504265
0.0007491830920606728
-0.001749135091589958
-0.0008372918449198238
0.000851417826594253
-0.000198643082502562
0.001028922184630147
0.0001802967079887455
-0.0001941049305773607
-0.001430937801270286
-0.0003129012264520591
0.0006104850147917895
-0.0004142755355535576
-0.001033469005459639
0.0007329025239549579
-0.001101783881307813
-0.001422754119892793
0.0006094065999339284
-0.0003368455514231406
0.0007322272439931097
-0.001094340320363272
-0.0004459943944619656
0.000276379727849456
0.0003318614426520379
-0.0003730914230805139
-0.0003903289917416864
0.0001551792443211756
0.0002682818935984229
-0.0003786117873130447
0.0001175849027107234
9.718743435802397e-05
0.0001719372844887027
0.0002004407350743004
-0.0002885106903103744
0.0003361476305415973
-0.0003989123135970636
0.0001508346382917736
0.0001446613810820386
0.0003404450283830468
-0.0002300812470403062
-0.0004046143349087174
0.0001495891724833686
0.0002042003560084368
-0.0003863772221759751
0.0001161188766450596
9.805041903697291e-05
0.0001684483055531712
6.693771785411795e-05
0.0003456434439912934
-0.000151361166284543
-0.0004106688921692888
0.0001494488966084838
-0.0001745396148350069
9.180946893073287e-05
0.000343334158803062
-0.0004090020579706301
0.0001483980450708288
0.0001542533609489124
-0.0003905963316840913
0.0001154391792374865
9.907839410970309e-05
0.000166486778463143
-0.0001365353917233797
-0.0003975015318548658
0.0001025200964182587
9.75401520732454e-05
0.0001594370602454919
8.755398639151221e-05
-0.0003995534591787829
0.0001136351347712211