/*--------------------------------*- C++ -*----------------------------------*\
  =========                 |
  \\      /  F ield         | OpenFOAM: The Open Source CFD Toolbox
   \\    /   O peration     | Website:  https://openfoam.org
    \\  /    A nd           | Version:  7
     \\/     M anipulation  |
\*---------------------------------------------------------------------------*/
FoamFile
{
    version     2.0;
    format      ascii;
    class       volScalarField;
    location    "0";
    object      Phi;
}
// * * * * * * * * * * * * * * * * * * * * * * * * * * * * * * * * * * * * * //

dimensions      [0 2 -1 0 0 0 0];

internalField   nonuniform List<scalar> 
12683
(
27.68048509682767
27.67430983306616
27.651364600061
27.58772282631703
27.59505483307187
27.60754900499966
27.59786009095569
27.64510730397622
27.62863606022281
27.61122296644518
27.62385538726771
27.5856276801658
27.58025856724162
27.57509588809073
27.5787665121752
27.57413602231706
27.57199257989584
27.57080457839521
27.57151990404996
27.42616381706334
27.37065082195022
27.37469302071184
27.35410853363011
27.35145358858545
27.38362820993097
27.37901281028942
27.41190006037166
27.41878609537983
27.3379431328645
27.33666691422609
27.34672175692962
27.34899407354917
27.33180269325312
27.33166586996778
27.33456287666201
27.3355411490802
27.71130072174763
27.64631210299871
27.5820554063913
27.58433965634141
27.58944148327799
27.5867986620264
27.70525912345722
27.63996683311156
27.69961903311145
27.63404302254391
27.62333619740651
27.62851045046838
27.57993925487633
27.57798376432528
27.57453230590616
27.57618347292311
27.56502430280028
27.56514220710379
27.56573289732045
27.56537822734055
27.5859983058323
27.53039107118121
27.56199301996944
27.48094610727527
27.45256164940005
27.49996792706312
27.49887863450263
27.52660013261106
27.46867615368745
27.52383982343816
27.46580794239614
27.501682789501
27.4962699603297
27.518885729778
27.46066027042377
27.52127149147599
27.46313922389011
27.49384621942189
27.36687049590954
27.36333782195768
27.4400885626554
27.44345470906919
27.39799902876553
27.43133239951569
27.42743482398069
27.40197231919876
27.45090965515925
27.44705701891339
27.39428353207739
27.42038479562619
27.3908115490553
27.42379053953382
27.60204115324101
27.59856437624569
27.59227621533166
27.59531389179745
27.35696764929194
27.36004066002572
27.43694703958475
27.43401855680507
27.38174023346139
27.40892570834268
27.41148646069144
27.37913019186523
27.38455064321561
27.41720641698055
27.41424336969699
27.38757111000569
27.4287627030552
27.43129363185115
27.50791289907045
27.52956093521331
27.47175274036511
27.50468994481885
27.47504950477056
27.5327336699
27.51136084008886
27.48235047058319
27.53976006032001
27.47857727701247
27.53612872250702
27.51504936924168
27.38855832491077
27.39382496862364
27.46914463148849
27.46412471988806
27.41075507741661
27.43549711850204
27.40621840899698
27.43994719177335
27.45502682810724
27.4594259918206
27.41560079993205
27.4497772647831
27.42077745027035
27.44469974280611
27.60575630328943
27.60972640889149
27.61849677913896
27.6139663775067
27.54312163228326
27.56200171425987
27.50546001795625
27.56740578354899
27.5110746336096
27.53763439691196
27.54898691723971
27.57937106557724
27.52350585621753
27.57318424781678
27.55526779664005
27.51707825119418
27.40546700037978
27.3994519547123
27.47450765728121
27.48024090992284
27.43854264049137
27.47383662236608
27.44531065775243
27.46719937042106
27.49293587998114
27.48637213929156
27.43222008747407
27.45520111663192
27.42630804408666
27.46099947860572
27.52769776001483
27.55694716368851
27.50020834707068
27.49529213301111
27.55221547043316
27.53250296174609
27.52320125424947
27.48638240397069
27.54364042497791
27.51898979586813
27.49069079909793
27.5477869795564
27.48761637099912
27.51102837977297
27.45249621302817
27.51275289608734
27.48586431529969
27.45428801936876
27.48952630405672
27.51667553530321
27.45836376238164
27.51463317240387
27.49160123079136
27.45624168187467
27.56933042479318
27.57042859656636
27.57302581725389
27.57165910213325
27.48281571157296
27.50945494871567
27.45086137152805
27.48426601470147
27.50802749028985
27.44937818364911
27.4815101053557
27.50559522728963
27.4468508277064
27.50674226205579
27.44804273148677
27.48034465069352
27.33937304552629
27.34096074173796
27.41875843619804
27.41724425679385
27.3658470118962
27.39466125789789
27.39589252203443
27.36459221484903
27.36725293697663
27.39880402236675
27.39727200912157
27.36881414710871
27.4146639389328
27.4158807978831
27.34462953268538
27.34271107345526
27.42042753957983
27.4222567978709
27.37447818503775
27.40655347196599
27.37671220086589
27.40436148170109
27.42641793826903
27.42425144764117
27.37242133328628
27.40049267680264
27.40234346290331
27.37053515709588
27.56836180329507
27.56751978053891
27.56620713358382
27.56680226220274
27.47766155148568
27.50233286597257
27.44346061200474
27.50295447207696
27.47702981632638
27.44410655876727
27.47842306025286
27.50458347643762
27.44579944445021
27.47931678142498
27.50370394800682
27.44488543096073
27.47614976609016
27.50183758211761
27.44294600736906
27.50146723425141
27.47652639264495
27.44256130776491
27.47589898549755
27.50109783182108
27.4421778254471
27.5012208496511
27.4423054738552
27.47577359515306
27.33207649075979
27.33248800287879
27.41067715052525
27.41028453373317
27.35980802317043
27.38983564528375
27.38996708734838
27.35967391677203
27.360076985344
27.39062782110165
27.39023086893181
27.3604816204568
27.40989343367115
27.41002354491419
27.33372934812226
27.33303841156714
27.41120248389166
27.41186196546204
27.3625229589237
27.39357509687515
27.36348521879584
27.39263084729402
27.41359044751623
27.41265723875577
27.3617029562815
27.39115911182489
27.39182624763875
27.36102310240574
27.6002336487387
27.62354804980662
27.61895820022866
27.65811251848915
27.62589416795717
27.59321987915529
27.63037398632278
27.52924675003813
27.55902041835131
27.5899937753674
27.55348747918987
27.55581586515837
27.56132609768282
27.52688547336945
27.53179060157046
27.56101571971504
27.59242784576242
27.5664658479821
27.55832191965413
27.56379918375526
27.53452207030355
27.54395311610552
27.57914887749267
27.60409462707732
27.57385648603714
27.57564412686849
27.57031300087883
27.54754471263681
27.5405926478895
27.56390455228876
27.56931525147037
27.60087894935264
27.57237900054502
27.53745377424685
27.5670006895583
27.58057707060595
27.61721755869956
27.63923223217763
27.61249655882513
27.60646164532465
27.61126897189457
27.58668416442557
27.57487193509887
27.59555437738846
27.63377095652332
27.60053476734707
27.60082644895621
27.60573760232111
27.5695338524009
27.55548365486854
27.58287771260208
27.61516628694311
27.57764199941257
27.58687713907833
27.55138385622977
27.58168798734676
27.5598627227924
27.59062440757386
27.61935726857693
27.59568856740589
27.59112843034771
27.58600783063064
27.56453911009644
27.52267408730423
27.55689118672444
27.58368330108658
27.55133076038303
27.54933743594139
27.55491676174474
27.52469580345382
27.52081088517898
27.5458194204626
27.58190055329625
27.55143704648283
27.54750257468556
27.55310464711537
27.51910357615102
27.51485670311065
27.54618996359181
27.57618828536854
27.54051696603566
27.54729988170938
27.54163649194253
27.51372075451662
27.5161307501427
27.54428395310097
27.54992012827301
27.57740723047365
27.5485394155857
27.51754414670512
27.54289071973633
27.51184593019827
27.54521347511707
27.57329799869837
27.53952961073774
27.5443614181018
27.51271743111874
27.53867115524603
27.5111017504677
27.53733278093386
27.57258610788136
27.54303133343044
27.54363625047528
27.5379396600959
27.51048440960266
27.53612518936047
27.50924388756497
27.50936986877162
27.54180877248363
27.57092530995849
27.5362458756499
27.54193495860779
27.50961934223676
27.53684905197089
27.5711636382139
27.54254762216701
27.53648704632435
27.5421818493759
27.50999017344495
27.43407944449297
27.54571518633775
27.53777937059789
27.44258429341777
27.51561914807806
27.46034134135932
27.48857444518669
27.46869934462479
27.49676772335007
27.50751324944792
27.29272615920168
27.28525987774792
27.26365744177246
27.2414697966382
27.25802275326926
27.21158058950256
27.22084688406316
27.23718427569689
27.22428899657797
27.2091615449503
27.17472132619019
27.1751042215667
27.1748174796017
27.17568888238644
27.17423108760396
27.18957057680154
27.19004181997546
27.1887265403466
27.17692846467438
27.17543153794483
27.17629129622169
27.17608112240237
27.17263970925687
27.17180094500302
27.18383816317457
27.18196070578731
27.18282823100814
27.18297297044287
27.18089110815969
27.18098276002857
27.18184194344954
27.18004388434202
27.17453514923677
27.17314236854511
27.17399469835621
27.17367091297285
27.18830289451263
27.18626210850683
27.18709884517914
27.18746561432355
27.17761389630985
27.17751586295103
27.17835192477586
27.17677434197462
27.17304524150581
27.17265248064296
27.17349684482703
27.1722048696909
27.18487531843111
27.18511554040782
27.18595787320773
27.1840217875343
27.1799902930148
27.17830791950383
27.17914379975635
27.17915103329671
27.28450542581844
27.30098874262326
27.31103365330061
27.27728075968115
27.26987669954881
27.25533351789012
27.23304186758986
27.24626331777996
27.25193227511567
27.18559662795597
27.18036368406383
27.2030248283994
27.21443508681401
27.21780884872042
27.21234899763898
27.23256871470411
27.22834089207506
27.20652457238908
27.19935096732991
27.19345205777634
27.3045195944257
27.27007685034398
27.29705094055745
27.27571014200444
27.19426573432933
27.19178695410266
27.20205602253665
27.19550434853982
27.20038121008832
27.19339857015177
27.1925008033308
27.20411739961316
27.19697874382234
27.19857852804489
27.31290801485716
27.32248489043799
27.25867316476335
27.26436921159152
27.28951774049751
27.28214330587941
27.35595218933094
27.3067930759504
27.34827270680633
27.26146404222284
27.30229737342603
27.27801122097244
27.26263040398459
27.27545577291552
27.37723482552719
27.32886680258938
27.36967721399485
27.32443386616473
27.30053868837923
27.28420834743236
27.28536311048237
27.29801484648032
27.32224438880879
27.25369385693826
27.32810692456873
27.2068762684053
27.25895221187125
27.20514195583404
27.29043200528162
27.24945818344674
27.23685540865396
27.28697637336728
27.22398356614532
27.23319926887028
27.26709690968319
27.20825220155036
27.21299847664459
27.26891114154289
27.21457143732322
27.36419872430961
27.33670447627561
27.34504892836784
27.31160608823694
27.28693032134978
27.29180426241641
27.34109436081649
27.32894951551337
27.32168024855258
27.24106084015298
27.26047174336872
27.24010018991536
27.29808622572657
27.28240013506761
27.27814967875294
27.28077732446601
27.25778080368567
27.26057900326862
27.26396378961064
27.24224031704225
27.24360522334491
27.27309216387293
27.25521140290721
27.25282762406894
27.39405377163071
27.44506228446605
27.4608914576134
27.33866641100261
27.37504980313117
27.38451635370026
27.35601791455695
27.43795002477274
27.42505187868857
27.3163969272143
27.37076450945373
27.38408119844861
27.30620482421864
27.37248904671098
27.37786955778612
27.28235693836431
27.3569449431233
27.35516443764157
27.28814252872709
27.35804557183788
27.36224636553285
27.29353415595683
27.37009255244057
27.36583059298738
27.37306175630031
27.3540332736047
27.31960905078791
27.32802323638916
27.33715843999601
27.31675194999448
27.30258956072694
27.29703086103655
27.26930177668346
27.27423601524474
27.28520309192207
27.27959363163149
27.33438168423971
27.30850782551217
27.31486318316603
27.31185826192906
27.30450621598219
27.29110647269012
27.29753065643057
27.20615931754441
27.22294759561244
27.22203988643812
27.25964066581889
27.23867234906966
27.23933192021592
27.20568626330249
27.22071216346077
27.2213409349241
27.2941357883889
27.27036653710658
27.27414207909108
27.24526712399118
27.264804132641
27.26055421272331
27.24108507111622
27.25257996063923
27.25648189423453
27.28376260641911
27.26685394738776
27.26360386209481
27.226870749218
27.23984188248489
27.24267558527466
27.23009058114035
27.24899870511532
27.24575004431066
27.26545228640904
27.24675975794886
27.24511258821076
27.20996948430679
27.22417786243413
27.22563167248826
27.21154588163794
27.22876855877114
27.22716340073698
27.27090968614147
27.24857851954599
27.25060642960533
27.21929697128822
27.22164588944874
27.23730647990113
27.23492626840052
27.21676558326625
27.23054479939308
27.23262287127372
27.36615518613185
27.31722559460201
27.35850456378442
27.31274754807842
27.28860091509584
27.33259873956782
27.33843670384583
27.30094980198897
27.29751747156433
27.37436630790041
27.32201447740043
27.35135924910526
27.30855523646935
27.29135339291448
27.38319183337934
27.32713281687683
27.34468046604767
27.3046272275874
27.29432225561296
27.17093950617931
27.17010152276931
27.1716872267931
27.17112355752396
27.17196165215992
27.17084907278643
27.17144063530026
27.17227882998424
27.17100656548774
27.17027656556176
27.17111481197638
27.17016842740419
27.17145492058736
27.17042593301485
27.17126421363713
27.17061667882092
27.19119376470017
27.19043776828249
27.19074392403787
27.28038702324803
27.25839742826983
27.20460932381593
27.28109330760541
27.35308965580184
27.35393285538382
27.2576833650233
27.23739807178784
27.2038657566938
27.21943629280231
27.25797470317746
27.23812589597085
27.23770077918437
27.204177510487
27.22017249323843
27.21974482675921
27.27212498864743
27.2732862881446
27.28605429529025
27.57166471134658
27.38790836255389
27.50302714335997
27.33521682585534
27.31141102563429
27.52077546370188
27.33963840476515
27.55863868919803
27.38035769115917
27.52847550409954
27.49862385882411
27.48917099778955
27.29628427902403
27.30889459760497
27.48714753931387
27.48411295867612
27.2951346849577
27.2690361459693
27.26959395246448
27.27773222924565
27.27954181530799
27.26832450380581
27.27112870595053
27.27461025295166
27.28370027647931
27.58661101031748
27.5166727105272
27.53175080552314
27.46364695002747
27.44751033530732
27.50814027174967
27.45263938599125
27.32358513403187
27.41381788583304
27.40280254288874
27.32020547232102
27.39126814793402
27.39960446286628
27.51402960808512
27.46534933260114
27.45855902452363
27.35480341854272
27.4180050590704
27.43236106083921
27.50990414365717
27.54724285114106
27.49761202541099
27.36056399245701
27.45651903720001
27.43780837412251
27.47310777830007
27.53724907535368
27.48684516382302
27.49487552174367
27.44522643999331
27.44116164398358
27.49173690943655
27.43373581344048
27.43774270363357
27.3006757649598
27.3769047131946
27.38107780013841
27.30246553455779
27.38888051380196
27.38277783788344
27.48564122992826
27.43177054886817
27.43099071221732
27.48463157686475
27.42901315625851
27.42981678895433
27.2920338836397
27.37283301635204
27.29259262907181
27.37581030331744
27.37337168323052
27.26861328302625
27.27028895721024
27.27609160361452
27.28153011717103
27.39601008713606
27.41188651663343
27.4198603484602
27.33107843448986
27.36001925256261
27.35594465560638
27.31412844169956
27.3365881568257
27.33926453096152
27.34436338637176
27.36437313923824
27.36902499484013
27.37330861179307
27.40445425015443
27.39751618857997
27.29758982063721
27.32168481562502
27.32297117850498
27.30656952115206
27.33410910957085
27.33181876444066
27.2913326519164
27.31678807063893
27.29413907033988
27.32055047137906
27.31956536696579
27.40471531588371
27.42842661121346
27.43779480806263
27.47129716031322
27.4456072198949
27.47950099350719
27.45399512266721
27.32720597055916
27.34857104974407
27.35213337369364
27.38693923458523
27.40989621375079
27.38294100152686
27.37570705891579
27.4062306682543
27.37920203651446
27.3170565604234
27.34524603239687
27.34214720102954
27.36394765420302
27.39384665354324
27.36657522062733
27.37244521456584
27.39662118612361
27.36940427750537
27.34941117772232
27.37930185418939
27.37399389037044
27.39121071048037
27.4224807901392
27.39577459319639
27.40585420289551
27.42725669325287
27.40064797498506
27.36672241149779
27.38497247994805
27.39103405658469
27.43051247381546
27.44985592622465
27.42371169836934
27.41141445737524
27.44363388172419
27.4173580638945
27.29905250648491
27.32601242247076
27.32441239137744
27.34931207181555
27.37814543657562
27.35057577286503
27.35356312385105
27.37953461444944
27.35199130481967
27.30442835430722
27.32777634942905
27.32970993069851
27.36151378013303
27.38667314790612
27.35926481459652
27.35529553293956
27.38464180142812
27.35719438563252
27.29161431047654
27.3174779858027
27.31706394956605
27.37215679117104
27.34448765230059
27.34516995412855
27.37242827102689
27.34476074466352
27.29329294066293
27.31803150023838
27.31872642138053
27.34819718707416
27.37485802145003
27.34722784047205
27.34571631249246
27.37404612902448
27.34640160473931
27.17687258216796
27.18016719679766
27.17745181568109
27.17959740344143
27.17627961690854
27.17822126131171
27.17901115952498
27.17570106620207
27.18876363841176
27.1786204119795
27.18069078220834
27.17802023062209
27.18111877481511
27.17928581670072
27.1824793193149
27.18175552408264
27.18001713491979
27.17643493536023
27.17395205197026
27.17431347268903
27.17679580549632
27.17720439133601
27.17767111473105
27.17518050580384
27.18558720173474
27.18729205692804
27.18827953611144
27.1845853274665
27.18658867180277
27.19011592799325
27.18763747275964
27.18921993171595
27.18258770937645
27.18630714723161
27.18357776145473
27.18509121412094
27.18166277068826
27.1832714960428
27.18080900145799
27.18413407924043
27.38534558141292
27.39907334404627
27.40704170095906
27.33360541033732
27.3515176534625
27.35617960637922
27.391645297972
27.36261583358266
27.38470503548699
27.34715428319098
27.32028274238019
27.34306901399987
27.30326570824671
27.32364870764766
27.32633403585628
27.28320885122569
27.30755504713177
27.30656387844838
27.3086951677539
27.28667460289818
27.30998715591826
27.32116188797803
27.29568246463752
27.31886421530182
27.41559277211597
27.45272172523832
27.42171933936916
27.42953302391387
27.43790794312517
27.36115729387802
27.34407279587774
27.3664743616462
27.37962990101279
27.39934647585263
27.40384554665872
27.41375522909489
27.40862765557279
27.38973816671481
27.37821999980426
27.34984529902447
27.37215160883878
27.4144373610171
27.43126942385511
27.40762734847036
27.4192047675884
27.40126666554647
27.3953094705357
27.33924691973056
27.31276071460443
27.33567274715476
27.39515082497169
27.36675002467515
27.39120642435731
27.3629967391798
27.3875310367077
27.35948559298552
27.32922649638757
27.30936684931005
27.33233636795883
27.37508519891633
27.34767139916658
27.35031194048553
27.38087279208493
27.35315370356504
27.35620962106125
27.30571737334733
27.28165406527294
27.30501636362503
27.35598341960511
27.33184171461474
27.33086497165545
27.3544805617318
27.33003105390626
27.32933816602317
27.3114338112501
27.28977036098852
27.31303921994718
27.33296358016891
27.35929626645698
27.33423481673713
27.36069181587495
27.33565764847529
27.3372376915007
27.31674861015638
27.29156485955081
27.31480873756559
27.36786984372126
27.34522661506638
27.3429665402576
27.36395339743081
27.34088663271311
27.33897822738772
27.17268024306695
27.17527425551375
27.17516500905916
27.17278879986188
27.17611911917017
27.17363505801606
27.17336094385324
27.17584584731044
27.17312891353505
27.17542400492591
27.17293830521013
27.1756144476611
27.30375472118656
27.28024151899192
27.30361253118356
27.3044569153067
27.28067135980305
27.30403671213075
27.3532350526824
27.32808423843339
27.32794077819165
27.32878389713954
27.35351730388248
27.32836603124797
27.52397967530505
27.48980634573497
27.49728337870219
27.54655957177759
27.51050582178061
27.51795486835842
27.53927853804156
27.50528347508053
27.5543291840807
27.52594558931497
27.44998689195814
27.41899498950217
27.42152104620196
27.47298957103965
27.44011810461672
27.4426237591083
27.47053491416712
27.42423869403711
27.45550340474254
27.42716063539886
27.47562054764866
27.44821859546662
27.44531976552067
27.47845994596301
27.46911158628016
27.44107772168396
27.43723775378981
27.48822974800581
27.46203228294705
27.45822022085252
27.49196251136845
27.43029220816872
27.46184886077133
27.4336492945925
27.48475459640642
27.45132619915867
27.4814919474754
27.45465764222218
27.48284722469685
27.50353091360733
27.47633103848921
27.5261832359478
27.50356709514259
27.53252526273393
27.49708247916821
27.47025115478127
27.4920341195122
27.46455161238519
27.52028677452199
27.48536119126959
27.49102836923684
27.51474184165512
27.47739952678898
27.44517568662336
27.44955732351864
27.50019254826669
27.4661029180611
27.49593223788672
27.47045459976301
27.45922527124328
27.48195376424552
27.45422956675057
27.50471999735216
27.48006277680293
27.4750986631763
27.50957862981516
27.41665563180757
27.44310555681973
27.41449278895764
27.46616851904358
27.43779788888613
27.46827022659713
27.43565279245104
27.43937018371861
27.4125021016127
27.41067549360127
27.46424145315947
27.4318674119878
27.4624665311711
27.43367878664147
27.40491881802917
27.43492887476362
27.40613489471684
27.45806614450897
27.42616093337078
27.4273661839416
27.45688490099623
27.40900915812831
27.436259161424
27.40749672636409
27.45938408476468
27.43021539383626
27.46085357506877
27.42871586285001
27.43268716123591
27.40384564750305
27.40291191804458
27.45494018340402
27.42509806554627
27.45584673618129
27.42417348597838
27.43033879467285
27.40211486538556
27.40145226320372
27.45416972609553
27.4227314417595
27.45352712848778
27.42338558304657
27.42915164671977
27.40011209290078
27.40025015537035
27.4522364012344
27.42142599063913
27.45236837437351
27.42155729587869
27.40092112407569
27.42942060840626
27.40052091518817
27.45262802685277
27.42220967660745
27.45301470087288
27.42181854589173
27.17007599951434
27.17091385981247
27.17009212738143
27.17093003868215
27.19027016861946
27.25752229170108
27.20366141928793
27.2372102804758
27.21923944848709
27.26816918151654
27.29118849413245
27.37201946163617
27.31664966728277
27.344350576938
27.17258651562708
27.17506868149824
27.17261269277373
27.17509629016633
27.17823584161502
27.18217260071621
27.182208652165
27.1782664422357
27.17260231169747
27.17508275157142
27.78685934120271
27.68711361663471
27.65312168154747
27.71778427421247
27.69422960746888
27.66043539949619
27.72474806093752
27.57696049160122
27.60074886555204
27.56921124131269
27.59311012553149
27.79344889311836
27.69819026907637
27.636280535676
27.62234693513011
27.68435393364668
27.60775533011185
27.66531517019326
27.6333399905285
27.63764985637614
27.72701161173825
27.75948580710417
27.6179196878828
27.62511367318804
27.65811910116624
27.6158586907211
27.61059199445844
27.60132875519253
27.60202035034258
27.61015039432867
27.63738426283065
27.62787424867621
27.64100173349201
27.6534078495905
27.60552506354395
27.60912468703059
27.6045816136817
27.60248254658014
27.7137023928765
27.65098368199127
27.64586797529559
27.63685522144868
27.63753215024316
27.6529890244095
27.65997495732899
27.78072434788361
27.65012194908562
27.62014469360492
27.65229675788774
27.62253950027939
27.65715420248239
27.65463802342902
27.66854255923754
27.68942500358912
27.66315724616035
27.69435133481477
27.64810710467168
27.61395385539581
27.64624529331996
27.6122004248123
27.64295912329255
27.64453118399152
27.63390720120869
27.60144405178306
27.63401940096313
27.63458164253871
27.60167446284852
27.63424404176482
27.64094276433342
27.6444398948189
27.64002424225525
27.63798335606455
27.67189143075167
27.66265991077
27.70771369903783
27.69201937534323
27.67540775290415
27.68744389030372
27.66915021040282
27.6339981374877
27.66584007627347
27.65985318120489
27.63083288231705
27.6627452744855
27.67268740667176
27.64486807496032
27.67646721455403
27.68481735385751
27.64899619890926
27.68050408813575
27.63800650370379
27.60659482108158
27.63905200334956
27.64152476760202
27.60779333431954
27.64022355667315
27.63708432678986
27.60376135685492
27.63628272409842
27.63503309720098
27.60306241463168
27.63559963709796
27.7209306298066
27.71916891485668
27.70749518333977
27.70760120756565
27.72283716815912
27.72489504744275
27.71137317836899
27.71236241420494
27.71050063827823
27.70974220967669
27.74084209251199
27.73771006566556
27.77500757878573
27.76967087988554
27.74418894986093
27.74776527743313
27.71605941347221
27.71754694733606
27.70813289452483
27.70781360171606
27.72949132460223
27.72711044807187
27.71470217649394
27.7134709510926
27.70855995325342
27.70909592966659
27.73204518094654
27.7347817205285
27.76002544182685
27.76468659084572
27.75566583367032
27.75158482850859
27.67230295421659
27.59944519692842
27.6617651548383
27.6444197065645
27.59003336962934
27.65252727365171
27.74642644731055
27.72011822373386
27.75272423990548
27.68502392726306
27.64913525494947
27.68321417517381
27.64742891658539
27.68001994491889
27.68154808149287
27.67122048308154
27.63696862031644
27.67132964366001
27.67187642817947
27.63719483167748
27.67154815089318
27.68698226495428
27.6551479037037
27.6890961972939
27.65747761755056
27.69381735151001
27.69137170070456
27.67520577939904
27.64198113035842
27.67622208599927
27.6786257354569
27.64314774610161
27.67736086551331
27.67430938568546
27.6392278345539
27.67353015327966
27.67231536096284
27.63854695222009
27.67286613038582
27.7054757764429
27.66860751908555
27.70225877506713
27.69644037681401
27.66552978253061
27.69925126843304
27.74055883190876
27.70212801606736
27.73507944770527
27.7251760108432
27.6969011486966
27.72996253415466
27.70891291370927
27.67915651143213
27.71258610481106
27.7206996474754
27.68316763202944
27.71650839705178
27.6712203768657
27.70749518842138
27.29269257104576
27.28838862473371
27.29217160386896
27.29632382735782
27.29734902859089
27.30238781043331
27.30559143780616
27.30090158025901
27.27596469568314
27.27182724365741
27.27546266561563
27.2792963782069
27.26429483465715
27.26798534100819
27.27167877355743
27.26792856768184
27.26080386796381
27.2576232015276
27.2613817984825
27.26448763077016
27.23655092694581
27.23416786469321
27.23793348039445
27.24028243155427
27.2481948334779
27.24498421152133
27.24867698048149
27.25163076820698
27.23921271114696
27.24203618126116
27.24577473324932
27.24290606559437
27.18583743841808
27.18522796163164
27.18136198215805
27.18210889953816
27.17960280125507
27.17996105860303
27.18353834502794
27.18389468001471
27.18427658739791
27.18472203508755
27.18082993704594
27.2038535366225
27.20254722988265
27.20632615728142
27.20763941432681
27.20541779282978
27.20724692956475
27.21083158830028
27.20917738434545
27.22692954067101
27.22440490179058
27.22815282694616
27.23045194885213
27.21993415747066
27.22212215172197
27.225914845657
27.22370772751393
27.21236812087631
27.21399030133945
27.21776253147747
27.21613214668823
27.21785168825235
27.21586386086848
27.21961526478013
27.22165649223301
27.20063533220932
27.19837409004585
27.19683968926607
27.20200042568714
27.19611949620779
27.19703188170873
27.19321783006523
27.19234979402437
27.18759944765958
27.18808652285254
27.183826217609
27.1842431555794
27.18872318184581
27.18947489834377
27.18560517122169
27.18488349407727
27.1930341356052
27.19202998112879
27.18936188219519
27.1882031063435
27.1911146435047
27.19025352196854
27.18639707829131
27.18726325909757
27.17833734227023
27.18228265259856
27.18239711583879
27.17844792492628
27.17929011672351
27.18323657578687
27.18296311214804
27.17901848079511
27.18273878930969
27.18254566039069
27.17859807331835
27.17878833200661
27.17824571989587
27.18217350374282
27.51029018511494
27.56193925291112
27.53521913984722
27.58014192142904
27.60886509167226
27.49649763574049
27.48388327424559
27.54867469169518
27.52167127986628
27.50927867182149
27.53653466370239
27.56699961874615
27.55497784069265
27.59600767351663
27.5842420820974
27.6615409111105
27.63857800405405
27.64916326683117
27.62604699571227
27.6145675116348
27.63783614411618
27.47229766443185
27.46161602613101
27.53375745406725
27.5439375954547
27.49789630916428
27.5150982776956
27.52538410419408
27.487400879441
27.55425921424263
27.56347202293243
27.57343757848764
27.62743527133076
27.45173998320478
27.52434573365048
27.5055880984575
27.47769672542436
27.32036114930739
27.3689463691464
27.33051286779544
27.38296409936138
27.31230380137131
27.36104694884612
27.35619118677182
27.34279848606785
27.38021118567849
27.34242328852975
27.33197332326833
27.39462457983517
27.36732551112347
27.3545418745352
27.42924551593106
27.44359512423108
27.4632026346059
27.43628942844357
27.39290104283257
27.38260592696638
27.5253120215387
27.41611270003617
27.41096127007106
27.39767840252673
27.42549863108119
27.41353330976999
27.50038705393511
27.47915675511537
27.40404545648553
27.37412145511278
27.38544266586512
27.39463970121853
27.38134043488719
27.35738312249289
27.36894062324721
27.36368916763346
27.34685259640064
27.40927332324688
27.47401341917502
27.43916000378769
27.45347349978956
27.45990068838198
27.54448578254993
27.49657486000063
27.42606885678817
27.53132363760623
27.52058123910446
27.44699089860257
27.48270204330597
27.47000846170802
27.50705535286178
27.51923092445467
27.49466108866319
27.40294928681239
27.39269570264706
27.41404311868814
27.64737013243009
27.6238806407483
27.59304811875673
27.56934712216793
27.42419791249514
27.49783895378628
27.60385204575516
27.54914264735846
27.41408805902319
27.48833418961424
27.4351332791912
27.44759284851661
27.45834761871981
27.47275132033589
27.50811815078632
27.48326877371348
27.43764801556084
27.46302278561514
27.48332755442369
27.45700271116644
27.44916268301215
27.46960286259281
27.50406411883044
27.42446099766201
27.43470508729605
27.44541605945265
27.47840346506224
27.51238137839826
27.49070159541778
27.4893984129559
27.45661486805431
27.46709106349366
27.40343046047315
27.4247956023121
27.46971804729301
27.44692236305516
27.56848340975347
27.58937517182773
27.61595270802264
27.5439793408615
27.59202071778214
27.56469016051932
27.58078689476391
27.55575021480108
27.57650315422871
27.60352164186032
27.54017060388228
27.51390926550133