/*--------------------------------*- C++ -*----------------------------------*\
  =========                 |
  \\      /  F ield         | OpenFOAM: The Open Source CFD Toolbox
   \\    /   O peration     | Website:  https://openfoam.org
    \\  /    A nd           | Version:  7
     \\/     M anipulation  |
\*---------------------------------------------------------------------------*/
FoamFile
{
    version     2.0;
    format      ascii;
    class       volVectorField;
    location    "0";
    object      U;
}
// * * * * * * * * * * * * * * * * * * * * * * * * * * * * * * * * * * * * * //

dimensions      [0 1 -1 0 0 0 0];

internalField   nonuniform List<vector> 
12683
(
(0.7396374457446885 0.1575852934104438 -0.7910969263952817)
(0.742281921098509 0.1469847849215547 -0.795314280460127)
(0.7081575504682888 0.1600661434019048 -0.7232088435682233)
(0.7325179749277692 0.05373820066054787 -0.7657501455583091)
(0.7294078383954247 0.06685676966349201 -0.7616222133290391)
(0.7242898403384535 0.08773221433599879 -0.7537468762271808)
(0.7282917857266408 0.07168297199168983 -0.759285982041195)
(0.7101114203967646 0.1493221472331352 -0.7290484006019973)
(0.7161898693243077 0.1220393427532612 -0.7390075104119878)
(0.7228902457590608 0.09375274795930412 -0.7506134325973141)
(0.7178865797581467 0.1141999906075637 -0.7432303820644858)
(0.7333752843481097 0.04971537980631321 -0.7674654777443429)
(0.735693360803204 0.03857388514792311 -0.7704549866301758)
(0.7379213252519925 0.02525434172064731 -0.7736866405519335)
(0.7363158604766733 0.03509023539157934 -0.7716611509985717)
(0.7383289323586272 0.02211515375359587 -0.7744492258005332)
(0.7392812709791703 0.01306887712047086 -0.7755928768653878)
(0.7398285210626446 0.001440203749566247 -0.7762013170180254)
(0.739491767665968 0.01011819898913662 -0.775922572562935)
(0.2911494537844604 0.1882270317266615 -0.6489738954173747)
(0.300109057707727 0.09627981114878867 -0.6715694062800708)
(0.2994351266862318 0.1029200652443652 -0.669916643934078)
(0.3029070986742114 0.06786660318151841 -0.6783721514560925)
(0.3033534335550886 0.06294931032506841 -0.6794521352031431)
(0.2979607723033305 0.1174823188378745 -0.6662729163417468)
(0.2987216272723789 0.1099727105103668 -0.6681537117553973)
(0.2933867177612179 0.1639270815702868 -0.6547587359319639)
(0.2922966633163954 0.1755552418218119 -0.6519637928800579)
(0.3056170097507535 0.03330157552263102 -0.6849093288511019)
(0.3058302652616398 0.02955652220125891 -0.6854195468744174)
(0.3041469730884478 0.05371656543393864 -0.6813707984471447)
(0.3037655197182104 0.05823915606443081 -0.680450431880414)
(0.3066242609611323 0.005056437556310513 -0.6873246512757323)
(0.3066518924810678 0.001691617071752219 -0.6873901708422002)
(0.3061748634325512 0.02229827028001102 -0.6862467528616532)
(0.3060160749027291 0.02589156881188554 -0.6858653574422812)
(0.7433132672864284 0.1541556664385581 -0.8332805775674217)
(0.6483112125719925 0.161905654003356 -0.8191712923936249)
(0.6777869239918251 0.05415880115737509 -0.8586060282625667)
(0.67672445312316 0.05837856415378106 -0.8572122535195507)
(0.6743593675203596 0.06741606493211397 -0.8540937138500206)
(0.6755873967584103 0.06279171494493443 -0.8557074385578675)
(0.7466379301599252 0.1437744559134796 -0.8372806287982459)
(0.6511684392387334 0.151004024833565 -0.8230912803599313)
(0.7497768849850278 0.1342497534874949 -0.8409979259779226)
(0.6538727644669591 0.1410015550375028 -0.8267305681715549)
(0.6587559709636241 0.1232451592751879 -0.8333142893795432)
(0.6563818552072438 0.1317763228291161 -0.8301404209787309)
(0.6787665896902539 0.05011256512224349 -0.8599000034903577)
(0.6796768793301626 0.04622503712100037 -0.8610924716069764)
(0.6812804695943627 0.03886348555114955 -0.8631992391616123)
(0.6805111960982351 0.042479543914865 -0.862192673248929)
(0.6856888489464963 0.00144845977316908 -0.8689765329573893)
(0.6856388424888525 0.004351010440592837 -0.8689107756132612)
(0.6853730654531585 0.01019834093523223 -0.8685633845695254)
(0.6855339073821572 0.007265228459193794 -0.8687737555419173)
(0.5553475687836281 0.1690958426834588 -0.7936640088081013)
(0.4904100568992726 0.1756736311459166 -0.7487042357389885)
(0.5702690226475874 0.1716113225505181 -0.7274334388981154)
(0.4356285033481366 0.1813886314462275 -0.6641396639103037)
(0.3622292315011191 0.1849932735144707 -0.670459501590022)
(0.4178208442442586 0.1794133971951524 -0.7358463725881912)
(0.5888382161793108 0.06661928474073463 -0.763949765156862)
(0.577310985637724 0.07041374165318957 -0.8274086833700477)
(0.5074729519089021 0.07316679466464522 -0.7812407849494185)
(0.5783516352425941 0.06558324236748607 -0.8289694820675332)
(0.5083195213458558 0.06814672465681182 -0.7827372835730868)
(0.5878929507570634 0.07152380547999282 -0.76237740688436)
(0.5896354747905262 0.06193760094339968 -0.7654056775824778)
(0.5802150536828292 0.05656561383582829 -0.8317726918650318)
(0.5098262097368573 0.05877496999995737 -0.7854234846912095)
(0.5793144753260587 0.0609735339920086 -0.8304248268384815)
(0.5090910126798738 0.06335614100865694 -0.7841332229654816)
(0.5904594508271586 0.0574614216183118 -0.7667583694544682)
(0.300745017753041 0.09000559934526692 -0.6731245570219166)
(0.3013444485506824 0.08405649648562086 -0.6745807458361606)
(0.4331518776200044 0.08009472704385315 -0.7651784352461281)
(0.4322691365936734 0.08576588541992476 -0.7635280000397963)
(0.3717391597302208 0.09463175813143812 -0.6947229227455957)
(0.4448242447149856 0.09922872629656546 -0.6888009962065913)
(0.4456488094828255 0.09282278246973344 -0.6906748990373189)
(0.3709938991552812 0.1011627020755255 -0.692964490491543)
(0.4303254768074265 0.09808992437208362 -0.7598716842051262)
(0.4313303463686176 0.0917532699495708 -0.7617586688442873)
(0.3724368184492717 0.0884606455023863 -0.6963752280955209)
(0.4471389965415699 0.08103410925251352 -0.6940832855855107)
(0.3731001880374525 0.08261279369002655 -0.6979162441245297)
(0.4464018566009091 0.08676891310010861 -0.692451360423484)
(0.6685331163164049 0.08851605989250756 -0.8463823626213693)
(0.670143394600393 0.08279705826409185 -0.8485085098832552)
(0.6730505810959015 0.0722757891389967 -0.8523574454073781)
(0.6716410356064311 0.0773927754201713 -0.8505012466368098)
(0.3024247025296973 0.07301002139165397 -0.6772020883466835)
(0.3019041440156144 0.0783993567132302 -0.6759407556507461)
(0.4339741027698445 0.07470815104756318 -0.7667217971848601)
(0.4347439540947061 0.06958067495242663 -0.7681567289856313)
(0.3748399610795847 0.06671368851994287 -0.7019356931335056)
(0.4496225420580156 0.06071447723034422 -0.6995742740205296)
(0.4490530989420569 0.06544836638596215 -0.6983635654858983)
(0.3753457672311478 0.06188452639565921 -0.7030821514181145)
(0.3743005663062892 0.07176397019437072 -0.7006933359297866)
(0.4478103182439553 0.07558571908751334 -0.6956249775809041)
(0.4484619766520829 0.07039883902420922 -0.697036440840912)
(0.3737178711936825 0.07705581429343239 -0.6993574203191349)
(0.4361234465476187 0.06000849526826449 -0.7707309395153129)
(0.4354579957531943 0.06468757874847375 -0.7694932878378865)
(0.5859113559328677 0.08210335279789961 -0.7588724070689191)
(0.5762030476601969 0.07548963843840982 -0.8257292513471819)
(0.5065895944149603 0.07844105633675426 -0.7796276112043533)
(0.5869859783696204 0.07667799154032555 -0.7606884677451816)
(0.5056232236917606 0.0839943483066594 -0.7779044486960379)
(0.5750093666964269 0.08083436071324675 -0.823934133308041)
(0.584888913282111 0.0878333004539595 -0.7569227530495317)
(0.5035244524713021 0.09606323749241152 -0.7740774994310763)
(0.5723803526224969 0.09245179024143207 -0.8199515069131035)
(0.5046199957900963 0.0898579026522604 -0.7760517660953636)
(0.5737424920925612 0.08647859135695318 -0.8220068826391685)
(0.5836762197727214 0.09389507163576326 -0.7548334249630034)
(0.2971522832213136 0.125497340159844 -0.6642608519762532)
(0.2962922993636052 0.1340744906546584 -0.6621160393252911)
(0.4256170198228745 0.1277899208796475 -0.750939485490921)
(0.4269097188144571 0.1196138426796958 -0.7533946557106935)
(0.369379409787091 0.1154757284512851 -0.6890742050193581)
(0.4439880038928498 0.1060286702418798 -0.6867613692359054)
(0.3702132719021586 0.1080961101920968 -0.6910810913822425)
(0.4430724637995886 0.113263638236916 -0.6846102918763705)
(0.429259191904958 0.1048162483552243 -0.7578516173801083)
(0.4281187395819844 0.1119738629266858 -0.7556989988795557)
(0.368507938704293 0.1233522431717709 -0.6869213314800124)
(0.4411417958080407 0.1292483232577698 -0.6797903459539429)
(0.3675787152831616 0.1317815484449769 -0.6846274389774023)
(0.4421508322927291 0.1209859516423235 -0.6822643739276181)
(0.6668259299309749 0.09458776101935433 -0.8441024467905759)
(0.6649915553590887 0.1010471095852744 -0.8416725005715402)
(0.6609628453167606 0.115320898414729 -0.836291779931019)
(0.6630497298277092 0.1079430140963492 -0.8390674350376658)
(0.5752987522127242 0.1397238910499018 -0.7386612955240563)
(0.5641289345943818 0.1287213996885728 -0.8073227959995074)
(0.4970663583214894 0.1337388741115142 -0.7619171297430322)
(0.5621301167612813 0.1376312719195177 -0.8042586789995614)
(0.4955072471444952 0.1429938777265903 -0.7589605831848139)
(0.5769833182721221 0.1306913435278894 -0.741847673341276)
(0.5737701975786195 0.1494911533554095 -0.7351903537115128)
(0.5577470143896539 0.1577115119486839 -0.7974517381664802)
(0.4921747636894932 0.1638502109878781 -0.7523771254901438)
(0.5600186347018995 0.1472648613650081 -0.8009635883889289)
(0.5719143104017889 0.1600756648202144 -0.7314942298265129)
(0.4939170274810319 0.1529995160186624 -0.7557746972750231)
(0.2944129299097942 0.1532058619185343 -0.6573775666248485)
(0.2953824895118924 0.1432850513517995 -0.6598245031096265)
(0.4242478074887387 0.1365694371729179 -0.7483099456330828)
(0.4227836250692676 0.1460242545818213 -0.7455070006796525)
(0.3645183585172565 0.1611149588888451 -0.6767177900257241)
(0.4367683558822834 0.1691912675495883 -0.6677903322114728)
(0.3633882624852127 0.1725422884660455 -0.6737047765556852)
(0.4379530317412126 0.1579961051300048 -0.6710999513170648)
(0.4195754429989865 0.1673325275267753 -0.7392936144305955)
(0.4212336579747468 0.1562455218427074 -0.742501149052304)
(0.3655831295936618 0.1505796257301964 -0.6795403210348321)
(0.4401363043523382 0.1381200096637221 -0.6770859543689802)
(0.3666122457932077 0.1408323539401333 -0.6821659357870528)
(0.439035180840849 0.1476714609556557 -0.6742317136192291)
(0.5799017159172222 0.114482589293239 -0.74759908570091)
(0.565989081701338 0.1204461861483456 -0.8102003744711314)
(0.4984920397428755 0.1251434654854946 -0.7646931539155396)
(0.499882556416868 0.1171390200183736 -0.7672745317722829)
(0.5677492582777113 0.1127406774109222 -0.8128811568991297)
(0.5783835626571706 0.122297590162548 -0.7448374188796565)
(0.5811720652927075 0.1071753526746315 -0.7501868963430434)
(0.502391953900324 0.1026501157117315 -0.7719570604239693)
(0.5709377565838909 0.09879279721837958 -0.8177471589496036)
(0.5825325145184233 0.1003308591933689 -0.7525877367905149)
(0.5011556288455019 0.1096584060511074 -0.7696996311850005)
(0.5693881792603674 0.1055391141493213 -0.8153992254050098)
(0.5924582464018452 0.04507117861563869 -0.7702125273635002)
(0.5831751463021115 0.04059018876816439 -0.836213330867243)
(0.5122309659132778 0.04217441679167037 -0.7896702492294017)
(0.5825228851358323 0.0443668150311808 -0.8352402066536758)
(0.593061611472679 0.0412355412877802 -0.7711833696352646)
(0.5116955378646618 0.04609851236951417 -0.7887410252437799)
(0.5918630919260233 0.04904478612621352 -0.769157559426586)
(0.5810446526146508 0.05233927363945772 -0.8330237691561394)
(0.5104935024662017 0.05438295740704313 -0.786621630124538)
(0.5818163339122399 0.04827867760262687 -0.8341767283164936)
(0.5911528282715111 0.05316862352703988 -0.7680042112913443)
(0.5111253077170208 0.05016318493707665 -0.7877237604351811)
(0.6837013809342546 0.0254373525650255 -0.8663745380759017)
(0.6831885938899391 0.02866063819999284 -0.8657048361970275)
(0.6819794397356617 0.03536255477779796 -0.8641196842911576)
(0.6826168619174564 0.03196580065721105 -0.8649528959637344)
(0.5940661645486095 0.03391894890039447 -0.772864997027578)
(0.5837671977265634 0.03693416865837336 -0.8371029974923412)
(0.5127102669560776 0.03837623331070684 -0.7905204656391478)
(0.59356372333131 0.03752169009631209 -0.7720630333861498)
(0.5843079002663184 0.03338697313843608 -0.8379086473217621)
(0.5131553542795004 0.03469120984959593 -0.7912892679319111)
(0.5944799651505419 0.0304128303387382 -0.7735817054152085)
(0.5852278166731169 0.02656962718382795 -0.8392834876248859)
(0.5139090337684762 0.02760963339335476 -0.7926021889633571)
(0.5847924612235575 0.02993564538300196 -0.8386356297118019)
(0.5135491756989541 0.03110623713140538 -0.7919838489791257)
(0.5948865415625615 0.02699371285926998 -0.7742252530347529)
(0.3053777279897973 0.03713878171243153 -0.6843349577872867)
(0.3051130794640926 0.04108413478801054 -0.6836984020216469)
(0.4387500088901181 0.03917881577605744 -0.775618252364387)
(0.4391490352318946 0.03541704348061945 -0.7763566338694274)
(0.3779355191045293 0.03274686699376449 -0.7088836039831437)
(0.4528100713327431 0.02852232847869846 -0.706297634418894)
(0.4525238156675508 0.03213311087702704 -0.7057253576756262)
(0.378186729281914 0.02906708410932612 -0.7094273422461372)
(0.3776584173387514 0.03651923921438067 -0.7082719145468934)
(0.4518640205442635 0.03964073215899211 -0.7043613417259716)
(0.4522142814005836 0.03583516455730767 -0.7050751179076719)
(0.3773509395226927 0.04039787325191498 -0.7075942872847487)
(0.4398299191923883 0.0281886423075163 -0.7776178663048263)
(0.4395079185256999 0.03175765764938072 -0.7770232085639924)
(0.304499054648446 0.04936045901691314 -0.6822194364419666)
(0.3048210410947275 0.04515384969013882 -0.6829940812081184)
(0.4383119751754151 0.04305658565226713 -0.7748030987840103)
(0.4378306410466769 0.04706325803507015 -0.773911072638902)
(0.3762470834150106 0.05281134384412647 -0.7051210946826727)
(0.4501370229957397 0.05617633755780695 -0.7007076792717266)
(0.375811934293688 0.05725658980990966 -0.7041441322160324)
(0.4506290546242472 0.05181678724661087 -0.7017378980978934)
(0.4367378948643123 0.0555230041951067 -0.7718785782250618)
(0.4373076151184321 0.05121378956751456 -0.7729361656053123)
(0.3766462267124258 0.0485301680269947 -0.7060220421756254)
(0.451490358741662 0.04356396098100051 -0.7035628662149241)
(0.4510713117065959 0.04761757306842353 -0.7026970346179854)
(0.3770155489373634 0.04439710291272354 -0.7068442041016637)
(0.6841520214044583 0.02228461101971949 -0.8669664691358941)
(0.6845452378934394 0.01919375493489629 -0.8674796731336704)
(0.68515499945094 0.01315914824994242 -0.8682777781036024)
(0.6848786971313868 0.01615445006253101 -0.8679171000267346)
(0.5957786431665592 0.01713902283010582 -0.7756894455179141)
(0.5864608906874189 0.01374462290018265 -0.8411232859438295)
(0.5149295302428837 0.01428145849719941 -0.7943585972263272)
(0.5862268442644208 0.01687397204714681 -0.8407752694917595)
(0.5960025260207209 0.01395605378852333 -0.7760281465852492)
(0.5147330823732076 0.01753507491851934 -0.7940273116135359)
(0.5955303905943088 0.0203674438013278 -0.7752787506499534)
(0.5856100804308757 0.02327716523447378 -0.8398560045382336)
(0.514221646883251 0.02418935572303139 -0.793149399724874)
(0.5952160738717085 0.02364814131182007 -0.7747875069090719)
(0.5859441261293798 0.02004881882890986 -0.8403525637027608)
(0.5144995466020532 0.02083478521878632 -0.7936235208762707)
(0.596306449194964 0.007691194553214512 -0.7764665962547754)
(0.5866444892347179 0.01065132556286461 -0.8413974653171721)
(0.5150836998512334 0.01106511086311781 -0.7946181770883367)
(0.5867789815802167 0.007587033866797366 -0.8415981059475961)
(0.5961715447947038 0.0108080668968739 -0.7762836105668339)
(0.515198625608309 0.007878887025585639 -0.7948058746417191)
(0.5963961267277846 0.00459794700101873 -0.7765704270481759)
(0.5869056370840966 0.001511241779776113 -0.8417874375813494)
(0.515309862442656 0.00156561519817813 -0.794976614247598)
(0.5868654726341056 0.004542891985624666 -0.8417269710261671)
(0.515274146443248 0.004714962039543345 -0.7949236838475908)
(0.5964419291918949 0.001523105277823391 -0.7766136135066327)
(0.3065758506290553 0.00843583267854226 -0.6872098638601604)
(0.3065085192259431 0.0118393783878131 -0.6870476645268098)
(0.4408854124675995 0.01129820567283924 -0.7795677149206404)
(0.4409870409097167 0.008045510882327526 -0.7797557094504196)
(0.3791707735906891 0.004959114185705348 -0.7114573455730832)
(0.4539890841547997 0.001603372432027312 -0.7084560394681754)
(0.4539511768869468 0.004851014411088519 -0.708413263861701)
(0.3791949191869248 0.001646904539979175 -0.7115119548222447)
(0.3791164501495803 0.008288949169893318 -0.7113481419394555)
(0.4537746271657924 0.01141627760872369 -0.708148801365398)
(0.4538778486713743 0.008120184926653593 -0.7083134961564878)
(0.3790335531483913 0.01164380227841205 -0.7111817234284722)
(0.4410852647197397 0.001599529279153872 -0.7799378867428144)
(0.4410534654742959 0.004815246977413546 -0.7798785075005304)
(0.3063112921039575 0.01876357183253411 -0.6865715092173837)
(0.306421047487573 0.01527875432984683 -0.6868361314910889)
(0.4407477556369693 0.01458202701103138 -0.7793131328329992)
(0.4405731169176548 0.01790408302923983 -0.778991324848853)
(0.3786080464997305 0.02193574485115279 -0.7103185619733683)
(0.4530597244920251 0.02498955392013478 -0.7068071257378734)
(0.3784097871808773 0.0254671715738364 -0.7099060334254014)
(0.4532855682011676 0.02152348735242175 -0.7072428346944548)
(0.440113896687476 0.02469739710413281 -0.7781440326901325)
(0.4403620274421277 0.02127300348631017 -0.778601249413417)
(0.3787795784278393 0.0184603390467506 -0.7106693000332442)
(0.4536422441018854 0.0147451301008369 -0.7079154169761913)
(0.4534777262764532 0.01811155302402812 -0.7076150957824776)
(0.3789216431805002 0.01503189626208718 -0.7109559626464157)
(0.6442213615350921 0.1789038518058346 -0.7083855188230772)
(0.6800524769078669 0.1619186302826806 -0.6910061789510684)
(0.6512822029555134 0.1648933572911734 -0.7668168775971181)
(0.7057410449288342 0.1717018351641874 -0.7200481341759799)
(0.6487991979752228 0.1770068724268557 -0.7625389866252265)
(0.6457647202148272 0.1667634871838825 -0.7128408954064762)
(0.6790107856797934 0.1735777318051428 -0.6879452597013999)
(0.6640882555275545 0.06037139978528083 -0.7524584500303485)
(0.6988480513140503 0.05458353305447838 -0.7336637808070511)
(0.7315271488138455 0.05790620602650739 -0.7647699154314838)
(0.6764808334958593 0.05520143030021213 -0.8073665097709521)
(0.6755367450345643 0.05950081910606934 -0.8060138204138247)
(0.6983211468034418 0.05881541754435971 -0.7327661776200739)
(0.6647355832514376 0.05601125601177375 -0.7538107712503919)
(0.6631040271753446 0.0649263394012206 -0.7509248048781821)
(0.673425167249599 0.06870930338718102 -0.8028834236533949)
(0.7305436404856117 0.06229153108934554 -0.762761390955205)
(0.696594684077274 0.06789043426529584 -0.7296477956147251)
(0.6745111522204383 0.06399827205881319 -0.8044540395814879)
(0.6971938181416444 0.0632579362427315 -0.7306944126061823)
(0.6623626302268826 0.06970108210821664 -0.7493507834924382)
(0.6591902216635226 0.08556319151814097 -0.7436830550208371)
(0.6924954096258876 0.08903111586282131 -0.7218230387258613)
(0.7257461920898779 0.08209454461749378 -0.7552625539760122)
(0.6682814203697051 0.09020312886371763 -0.7950967720356817)
(0.6932460593034816 0.0833199397855057 -0.723227420603006)
(0.6696867499921291 0.08437906156598375 -0.7971807257145762)
(0.6582423248547626 0.09145638760781355 -0.7415819557706369)
(0.6604160680334897 0.07999258856958576 -0.7457466375618734)
(0.6722537227031808 0.07366118719578088 -0.8010765657762436)
(0.6953275721233673 0.07277614831818403 -0.7272367876145128)
(0.7270011309776068 0.07673129279386941 -0.7579698020408051)
(0.6946536529057473 0.07789504917356581 -0.7260228440144118)
(0.6612575159045684 0.0747139851888643 -0.7475681223047591)
(0.6710145514857366 0.07887321473765015 -0.7992640781673312)
(0.6487689263953879 0.1453812037819537 -0.7210318606154641)
(0.681908646819231 0.1511379549983607 -0.6970617505326487)
(0.7123331669843078 0.139525864181506 -0.7317448243147147)
(0.6535635331614578 0.1538039391652359 -0.7711075808378064)
(0.6557972314276245 0.1436319952639626 -0.7747742223640892)
(0.6829321081642061 0.1412862253806366 -0.6996388669406746)
(0.6473407276321191 0.1556074243266252 -0.7172505814280269)
(0.6503617330579674 0.1359191789567526 -0.7247734604790578)
(0.6598696877517175 0.1255635781234011 -0.7816217352439695)
(0.7141702368978016 0.1304143568505138 -0.7366869922935312)
(0.6857597374718309 0.123676252119345 -0.7069529984605782)
(0.6578698569907211 0.1342434995858198 -0.7784545452719118)
(0.6847883209475861 0.1321208848846107 -0.7047580822757947)
(0.6516658031303649 0.127172982206238 -0.7280146988402103)
(0.6558381693356586 0.1043568773239301 -0.736774744492075)
(0.6909499895220811 0.09511485927212178 -0.7185855686162421)
(0.7212567174112147 0.1001136106913122 -0.7488697368734223)
(0.6667856271565074 0.09638775950919716 -0.7926999659063199)
(0.6901220205525893 0.1015510732245225 -0.716960947434456)
(0.6568991470929251 0.09770958813807887 -0.7391967444781542)
(0.6651992404038574 0.1029642192445918 -0.7903071791653316)
(0.6543866953693031 0.1114514239541407 -0.7340149867925007)
(0.6617388402552244 0.1174961502713411 -0.7848005391261199)
(0.7197084968694628 0.106944364935446 -0.745238670959536)
(0.6875442066459985 0.1157757470048459 -0.711322841401583)
(0.6884474104514573 0.1084453104272104 -0.7132066691080956)
(0.6635229658095818 0.1099867577190012 -0.7875497734059065)
(0.6532064214225957 0.1190313544439705 -0.7312185631485548)
(0.6661595110798419 0.04781406401624483 -0.7562729244879201)
(0.6998381779445531 0.05050583992499436 -0.7354323087305663)
(0.7342299607601869 0.04587388219915021 -0.7683014670516524)
(0.6773700295637306 0.05107752016144867 -0.8087031606087449)
(0.6781820712818147 0.04711633140075788 -0.8098576563086788)
(0.7002955915471391 0.04660370126670737 -0.7361956722278993)
(0.665600756690845 0.05183313668372899 -0.7551211577168117)
(0.6669085641718858 0.04394518145836489 -0.7573810430410076)
(0.6796317485294928 0.03961397786092558 -0.8119633376756874)
(0.7349671019403439 0.04214835746466235 -0.7697512669802008)
(0.7015426104187601 0.03919335976059549 -0.7383308544479201)
(0.6789432773110053 0.04329872101947534 -0.8109908278324549)
(0.7011520325234778 0.0428255014346617 -0.7376898240884601)
(0.6673836441155699 0.04020519726831485 -0.7583495059795804)
(0.6689433437718227 0.02965780963223406 -0.7608212511873979)
(0.7034598396445972 0.02566665004832181 -0.7415315195133829)
(0.737433142929236 0.02844175741311406 -0.7732212334446441)
(0.6818316777181138 0.02593004214775741 -0.8151276395456907)
(0.7031960348532809 0.02890664315206081 -0.7411096576219313)
(0.6813703453535769 0.02921496336775858 -0.8144830971689548)
(0.6692629460555497 0.02632186221120373 -0.7614606029156185)
(0.6684156825139005 0.03307367245808084 -0.7600710733015098)
(0.6802722710167468 0.03604549945651799 -0.812908959876242)
(0.7022692172703777 0.03565903043799069 -0.7395734397524518)
(0.7369203219776377 0.03173171121627087 -0.7722421549507804)
(0.702595361736286 0.03224550394350421 -0.7401015127074191)
(0.6680200583163813 0.03658797644638598 -0.7592721856219571)
(0.6808443047351971 0.03258409713413613 -0.8137125358504922)
(0.6699323920898286 0.01986124202665244 -0.7625309033544931)
(0.7039384984539161 0.02248025045136926 -0.7423157590635765)
(0.7387054231928781 0.01905864227715406 -0.7748029926728359)
(0.6822482105351386 0.02271572138707664 -0.8157318146336849)
(0.7041421312752862 0.0193737428747416 -0.7426343709423119)
(0.6696862534611271 0.02306199062633846 -0.7620464789944383)
(0.6826029316513544 0.01956494520157335 -0.8162232548215949)
(0.670256976260872 0.01671552364399888 -0.762952867289483)
(0.6831640235949014 0.01341012425670753 -0.81700306915419)
(0.7390122274714332 0.01603115793389692 -0.7753515097192445)
(0.7046506965559419 0.01329184648618209 -0.7434076245410913)
(0.704503628845268 0.01630109757055577 -0.7431954680419438)
(0.6829135567012659 0.01646496632026297 -0.8166644520449914)
(0.6704318895789886 0.01361058407842268 -0.7632779426122781)
(0.6836720654943955 0.001470499189061236 -0.8176229331070897)
(0.6709435774178406 0.001484416632129339 -0.7637894997732613)
(0.6709059059654163 0.004487784525595362 -0.7637674597596643)
(0.7051761273726251 0.00147038799545215 -0.743962366515189)
(0.7397702836650928 0.004313637778975272 -0.7761738338497854)
(0.6836240246823302 0.004426413489027083 -0.8175778891339724)
(0.7051384675615436 0.00439974378123691 -0.7439499060611922)
(0.6707705901294773 0.007501483690092584 -0.763685561321593)
(0.6833711928904347 0.01038894293560566 -0.8172788284582133)
(0.7396566830482116 0.007216185979015609 -0.7760494231182326)
(0.7049021132843695 0.01029766840640687 -0.7437367820098509)
(0.6835191773960163 0.007397518873911733 -0.8174626438245856)
(0.7049968751870157 0.0073484894065074 -0.7438382273219872)
(0.6706640985068708 0.01054301017162785 -0.7635267396003913)
(0.289928609890782 0.2020979015297811 -0.6457721557819179)
(0.4865284233876378 0.2028279234023595 -0.7405124947787664)
(0.4884717816067031 0.1886043170247424 -0.7447777790328672)
(0.2886421108795629 0.2173584293882373 -0.6423303004707422)
(0.4139529585007779 0.2071684637717457 -0.7281838341752785)
(0.3610033124318663 0.1986171948769166 -0.6669841767862985)
(0.4343820538630788 0.1947271909579499 -0.6602694682950806)
(0.359760313079767 0.2136027875655374 -0.6632215560426443)
(0.433223752512847 0.209397182834706 -0.6559646180284324)
(0.4159414393282562 0.1926300576262898 -0.7321599225597677)
(0.05275890661275365 0.1927095928744338 -0.2304986706627773)
(0.08586875505128168 0.1918240051304921 -0.243809824280968)
(0.05172262198345373 0.1450865898882819 -0.2342173538526898)
(0.05144516452524525 0.1111953100284446 -0.2372312548429037)
(0.07996263743843804 0.1465771578446177 -0.2491870675740023)
(0.05150664266779433 0.06477919552963338 -0.2406929379988186)
(0.05132480083377645 0.07901555497573001 -0.239366001719031)
(0.07571362672252076 0.1130258252144441 -0.2535185949679425)
(0.05053972543967229 0.08557093168406035 -0.260225996334593)
(0.06994031934668879 0.06564049230988242 -0.2583269587664)
(0.02168725859445433 0.02142658014315291 -0.09598867080423455)
(0.01970982061789893 0.02844981660639424 -0.06116991901388824)
(0.01758387984794926 0.02953557197789151 -0.01978780501983088)
(0.01969666979951916 0.02917349540192573 -0.06101943381252078)
(0.01758459522174534 0.02823528777067661 -0.01982668064774357)
(0.01918759612096065 0.0639238186751362 -0.05819748338055382)
(0.01768189452623252 0.06595376468908251 -0.01937584716349709)
(0.01755457570425996 0.06343974771349614 -0.01906969644291375)
(0.01898701462736259 0.03247278339537228 -0.05839010311378533)
(0.01748752547732071 0.03107319033120395 -0.01947893517562477)
(0.01935953836026529 0.03040253717396676 -0.05970418968554667)
(0.0173679599356826 0.03302495899140213 -0.01914111944862172)
(0.01854806052966643 0.01889303925010292 -0.05763900312954549)
(0.01710327126110825 0.01882176178122257 -0.01889301286681953)
(0.01975613281112449 0.05034959836442702 -0.06056350259403785)
(0.01765932611246578 0.04900146780719731 -0.01969750184536108)
(0.01976693449336117 0.04919121445535762 -0.0607747995684485)
(0.01766595223447293 0.05072120084054167 -0.01964645878419012)
(0.01905189320952845 0.04564579154550183 -0.05843142522665164)
(0.01755377275234275 0.04721049065302632 -0.01946063545469034)
(0.01944242353660735 0.04778443575783551 -0.05973774709448258)
(0.01741966199162603 0.04511529071489818 -0.01914204747597707)
(0.01938574951797413 0.02741558641528309 -0.06008309658163266)
(0.01734890649216738 0.02509845130124159 -0.01925833186531992)
(0.01899732019652627 0.02563356599366062 -0.05879005920482873)
(0.01748325432019499 0.02682834528847911 -0.01957822171776658)
(0.01898064922827758 0.06086730097822202 -0.05755040294933583)
(0.01744477479940156 0.05784598513161428 -0.01887924014446811)
(0.01895306366700818 0.05771369679288493 -0.05749430602841921)
(0.01746463794744856 0.06067789533487263 -0.01889320817704956)
(0.01877070303543542 0.03500300397446975 -0.05768351498935445)
(0.01724109190405614 0.03774961453769698 -0.01884003461649566)
(0.01869141813130488 0.03766030523801587 -0.05741054143416933)
(0.01727825131385863 0.0353027893913798 -0.01893035306102959)
(0.01862115316223951 0.02113850777500636 -0.05775693512941391)
(0.01723081969316343 0.02309916907797361 -0.01904704650141254)
(0.01874797125150206 0.02342103766312501 -0.05807416356549754)
(0.01715521839288686 0.02097667947755857 -0.01893929582080336)
(0.019435810374753 0.05207530443394296 -0.05924200079741344)
(0.01749180270651595 0.05512403477860105 -0.01903262472006314)
(0.01910134333185317 0.05466546276551915 -0.0580295958958242)
(0.0175855702504635 0.05271046757910593 -0.01934034869561875)
(0.01880892534415544 0.0430518142491909 -0.05770603552652612)
(0.01725257507114417 0.04026158813531618 -0.01884106727102334)
(0.01870491683598296 0.04035600760826406 -0.05741692223259364)
(0.01730953439489992 0.04275125753527972 -0.01893322845622187)
(0.06145155121144867 0.1780868471415386 -0.183610853189185)
(0.03878781884765929 0.2187216882602207 -0.2501854022592954)
(0.09175251168667706 0.2388329431056682 -0.2374238317102048)
(0.05850423738716262 0.1889138978196535 -0.2530620425890122)
(0.0417024626995551 0.1602884532288501 -0.255066193723382)
(0.06162773662002029 0.1349956415633176 -0.1861701814295579)
(0.06197284609998076 0.1036211514255569 -0.1886518908536015)
(0.04636239131100819 0.1221194791361142 -0.2577310603100455)
(0.05822417544961589 0.1443888141455478 -0.2569318647372025)
(0.06313773722001899 0.02451699947035084 -0.1943032468644888)
(0.04014820186804072 0.0217614778500097 -0.1720628766674472)