/*--------------------------------*- C++ -*----------------------------------*\
  =========                 |
  \\      /  F ield         | OpenFOAM: The Open Source CFD Toolbox
   \\    /   O peration     | Website:  https://openfoam.org
    \\  /    A nd           | Version:  7
     \\/     M anipulation  |
\*---------------------------------------------------------------------------*/
FoamFile
{
    version     2.0;
    format      ascii;
    class       volVectorField;
    location    "0";
    object      grad(Phi);
}
// * * * * * * * * * * * * * * * * * * * * * * * * * * * * * * * * * * * * * //

dimensions      [0 1 -1 0 0 0 0];

internalField   nonuniform List<vector> 
12682
(
(-1.138801276339364 -0.004695634575617093 4.153962343563259e-06)
(-1.129366370381636 -0.004680836804996465 -6.959066476800342e-06)
(-1.038289719674469 -0.01416471512030514 -0.001738914516337897)
(-1.128334055016565 -0.1007237900179673 -0.0003658237488840472)
(-1.133219317576518 -0.08523135869331237 -0.0002232035292294778)
(-1.175535094423705 -0.03688400406181475 0.005799528264144666)
(-1.114122087691475 -0.0934209279852591 -0.0004854342935893967)
(-1.100204332320589 -0.09616955233436797 -0.01767236485791048)
(-1.069610874107477 -0.06072589015962737 -0.01276585300871168)
(-1.059467934224671 -0.04949475154565765 -0.0002920062001709217)
(-1.172750310040762 -0.03160839912544961 0.003937543237424369)
(-1.166470670707082 -0.01159964733037065 0.0007330230228438362)
(-1.138885330123245 -0.03436950263627085 5.107820990429594e-06)
(-1.138900551253968 -0.004940897843314681 3.070176338092587e-06)
(-1.138557780362623 -0.03608839256886514 -0.0002587999563834523)
(-1.171039231528784 -0.02910287908748875 0.001705551704003151)
(-1.168233926386708 -0.01257337109978935 0.001709769420170305)
(-1.119487348284505 -0.08033165745577858 -0.0003521107307679524)
(-1.123539116777173 -0.03863759170687051 -0.004638592605596615)
(-1.107591075218775 -0.08518998045459712 -0.01429221001401909)
(-1.084418605300424 -0.03391898768616442 -0.006406166299226293)
(-1.074190770274586 -0.003027744264895134 -2.666007682877766e-05)
(-1.062395841717681 -0.04276357207521272 -0.0001071423865116903)
(-1.086590562263697 -0.02652092684842883 -0.004910684365514542)
(-1.145447496904654 -0.2290082955393142 -0.009922538495065988)
(-1.096595782837156 -0.1473807242362568 -0.001072114532233501)
(-1.125060846913745 -0.1037066019269033 -0.004882559801404175)
(-1.189816477185585 -0.1425982883555214 0.002191968900795269)
(-1.091286874425708 -0.1471471407962315 -0.01240793083917185)
(-1.189187305346533 -0.1214396766933629 0.005569260222271715)
(-1.180345059420874 -0.180049012750069 0.0005145218147324405)
(-1.152435037192815 -0.2078648332596201 -0.01358363052176894)
(-1.122729032264774 -0.1053690894193342 -0.007177485127503914)
(-1.08790974560697 -0.1463941807060886 -0.01681506871490905)
(-1.172568013393507 -0.173644685123845 -0.003226344148509589)
(-1.176245060312178 -0.043173100878497 0.004969329585406236)
(-1.138606034282236 -0.04549784597504664 -1.586624761631958e-05)
(-1.130797105867171 -0.08834095783748465 -0.003222446160140848)
(-1.188244233074791 -0.08709206457800397 0.003107079267874571)
(-1.137953342424087 -0.04768848633446654 -0.0005946367117377512)
(-1.184577450200939 -0.07386179365212656 0.006457212321094739)
(-1.174645689565802 -0.03969548272773066 0.002172992895004867)
(-1.181943654235263 -0.06665275034253862 0.007992557560002044)
(-1.129010062039572 -0.09019931777547008 -0.004923803051456128)
(-1.137381161639143 -0.04911370845112885 -0.001163738546491152)
(-1.184747769417267 -0.08637865920548654 0.008094445786024725)
(-1.220446891101967 -0.1009932493421125 0.001344004223635086)
(-1.172108968139157 -0.003052021621784695 7.026785464023943e-05)
(-1.179732096228683 -0.02350573652582123 0.0005278741239908853)
(-1.210254806781412 -0.07563208996215511 0.001214356316636272)
(-1.185069501910722 -0.03237612405592117 0.000693104285800333)
(-1.327818485671381 -0.09165635257261284 0.0214398418857622)
(-1.261340013093525 -0.04996583164871035 0.0002512163371327117)
(-1.264775128796901 -0.05169660927804017 0.01505644404100352)
(-1.322346863235381 -0.08737862166551551 0.001023765487034978)
(-1.183001486813893 -0.004241125637500333 0.001906688866875968)
(-1.179517705562147 -0.0009400712500916851 -1.250044018607795e-05)
(-1.181985071148744 -0.004228021672395403 0.0001180385333264823)
(-1.18035305267402 -0.0009794916327008154 0.0003361931841792382)
(-1.220173542881509 -0.02563701310383 0.009023762365784081)
(-1.249262301266043 -0.03804103748757115 0.0005937604115366917)
(-1.252188097275519 -0.03896531286268029 0.01276371256069482)
(-1.218215913811201 -0.02507218391118293 0.0002468877921095274)
(-1.35339669287866 -0.1364107729922608 0.02597952094464355)
(-1.347299763508559 -0.1283105414943445 -0.0001624087459581392)
(-1.356240303461802 -0.1472146556509106 0.02671988728963206)
(-1.184501711795712 -0.006481228044505722 0.002598358797765519)
(-1.191906688428003 -0.01048892924975408 0.0002333534549109057)
(-1.193148439129303 -0.01057749548967224 0.00442984218615076)
(-1.183449208084955 -0.006369727305074724 7.508700267579923e-05)
(-1.213694390332881 -0.02017350163761213 0.007735162929124607)
(-1.195233287437639 -0.01345876278806822 0.0001665562018669418)
(-1.196563903681209 -0.01369493846030629 0.005300730360223701)
(-1.211938484484297 -0.01989300540084403 0.0003797525775520899)
(-1.289879332486645 -0.003617984523309702 0.006408577698511169)
(-1.268321937523016 -0.01322343188755507 0.0002136895629919564)
(-1.279611168243757 -0.003191872912961691 0.005897056995997873)
(-1.299874847037777 -0.01688922903058263 0.0003372226085774937)
(-1.181417122771105 -0.0001015644577184746 0.0002563376874402051)
(-1.180826397910681 -0.0001495233316545374 -2.462276701399937e-06)
(-1.181500972725001 -0.0005416484927603174 2.960097246539237e-05)
(-1.181090480663599 -2.767033533440366e-05 6.378024564560859e-05)
(-1.24781695804324 -0.002182224960024722 0.004415250832504834)
(-1.261281515712339 -0.01123586788220626 0.0002821457487324375)
(-1.262075471946933 -0.00260639235751969 0.005086009031053564)
(-1.240266720521234 -0.009129278384092474 0.0001942541251408455)
(-1.531779486135073 -0.08756340857881333 0.03367292703172626)
(-1.523893945008931 -0.08749663130700573 -0.0009775096513305733)
(-1.191546139682612 -0.0005879934862218231 0.00142845806013683)
(-1.194935000864721 -0.003019731922194995 0.0001163052365505755)
(-1.193275561052399 -0.0006532443991129986 0.00156435920905046)
(-1.189525262976588 -0.00245660562281939 7.749761574416221e-05)
(-1.201939722847157 -0.000910121899127792 0.002115915286991186)
(-1.196689373870135 -0.003482316599803298 0.0001058684343760246)
(-1.197230821572144 -0.0007792321690796739 0.001827598131670035)
(-1.204325681964624 -0.004189273646110025 0.0001505559953581758)
(-1.329283844990101 -0.005050182096053955 0.008221056652350395)
(-1.362505209730236 -0.02807093566738568 0.0003846012952922791)
(-1.346292939773374 -0.005922752015671404 0.009075354238862236)
(-1.310904452861718 -0.02054212942192754 0.0001995040842839043)
(-1.182720089750458 -0.0002155193861694261 0.0005450639272237348)
(-1.183936168578381 -0.001270730137503409 5.648000762000074e-05)
(-1.183381029916089 -0.0002649633568174085 0.0006565641900066116)
(-1.181866535842014 -0.0008454928952183641 2.41437386795521e-05)
(-1.230798396275212 -0.001715891940201742 0.003623738037480376)
(-1.220751004947074 -0.006555019171888425 0.0001657232084824329)
(-1.226064444823704 -0.001558955459869628 0.003374046445173297)
(-1.235464781548067 -0.007906776793156623 0.0002324682906717034)
(-1.486757906245811 -0.05770630128196937 0.02448429416670288)
(-1.381887985486628 -0.03628567902003805 4.433928579250768e-05)
(-1.38916805089822 -0.008115370422709888 0.01110472211457172)
(-1.480801078801705 -0.05799541717033071 0.0003331980608510388)
(-1.696485085096368 -0.08180142369247473 0.1193113693725253)
(-1.653736132623622 -0.06953710561185371 0.08381461700906394)
(-1.187244680682849 -0.0004446100957347677 0.001086764606405744)
(-1.184699437226917 -0.001601349421375076 5.032210526279084e-05)
(-1.185055812480489 -0.0003558159550420423 0.0008660192178849819)
(-1.188312667447722 -0.002076824493427253 8.520027003218754e-05)
(-1.210620511533312 -0.001136621859004039 0.00258692873640263)
(-1.217348837667992 -0.005731159663922381 0.0001889171645575342)
(-1.217688557318603 -0.00132257733412585 0.002957625657469494)
(-1.206775577048501 -0.00478715157249228 0.0001354763540908104)
(-1.29739065462713 -0.2002629010483012 0.02088103660007437)
(-1.222405067981059 -0.1991800739466368 0.007015500310651456)
(-1.278511578322431 -0.1214255086355919 0.0117874741583353)
(-1.252796052469506 -0.08109227812013557 0.002231080728226465)
(-1.220792524848145 -0.1032936950203252 0.006031740698198992)
(-1.228253635953042 -0.13664474177998 0.001360624401073423)
(-1.228027440220249 -0.1398340521185152 0.0060337463916077)
(-1.254277707987198 -0.08329354520335655 0.009981462133687374)
(-1.277149122674498 -0.1177201828654875 0.002644942055695348)
(-1.299772660557026 -0.1905948333664304 0.01253770550550712)
(-1.226981569172976 -0.1866341600121405 0.001118635936737842)
(-1.225513489120581 -0.1908196160604157 0.004808362990576961)
(-1.299341506841614 -0.1842482199251973 0.002934844690927924)
(-1.179653777215379 -0.006687876013147895 0.001231147800074681)
(-1.177527832099607 -0.001966835711476871 5.465906980410517e-05)
(-1.173337453915132 -0.00926622517893089 0.0002189997281365944)
(-1.17259344884537 -0.003094960792255356 0.000323530928002264)
(-1.173836142823762 -0.009424576852825332 0.0009949025989713059)
(-1.17902550793457 -0.006586764940979873 0.0002751141698665355)
(-1.178102986586357 -0.002177990304055439 0.0003946584557066197)
(-1.182837336941427 -0.01157511524510606 0.002098415966056114)
(-1.180278682018904 -0.0239278961581853 0.002393778837447586)
(-1.175854237789474 -0.01596388813138412 0.0003705368924880376)
(-1.187101033133695 -0.01687586077513669 0.0006785002401736055)
(-1.176373036197629 -0.01624293713812908 0.001680981977630933)
(-1.187828324235234 -0.01715007311820626 0.003030878480324562)
(-1.182173555698555 -0.01139802821658092 0.0004698378245570812)
(-1.217123384324926 -0.04357559911362319 0.006593608666303571)
(-1.23222208938004 -0.05809692803786008 0.001827042608691969)
(-1.210817942238081 -0.07727360441469748 0.005479046525980935)
(-1.20043861288752 -0.05716678272979991 0.001044445425414961)
(-1.233536516693529 -0.0594678817599788 0.008177603147686615)
(-1.201057686969087 -0.05834159004603739 0.004724727011967729)
(-1.216008059309103 -0.04268407285630658 0.001473694195294894)
(-1.204480148934673 -0.03230304534771399 0.005235887983512515)
(-1.185649013595569 -0.03297941786935 0.003141766409128521)
(-1.194085169446349 -0.02343710020836853 0.0009092245900667695)
(-1.191963855957064 -0.04325960446525218 0.0008665109345982756)
(-1.19490525922351 -0.02384346167121366 0.004063383875796528)
(-1.192573797031174 -0.04410334366332214 0.003925035794593542)
(-1.203532291826819 -0.03170539684218415 0.001170919676170978)
(-1.290841691401275 -0.03901065921905968 0.007050129352953984)
(-1.270853983594399 -0.03217592527385562 0.001404794235636013)
(-1.261946224102937 -0.05018689434213105 0.006977871813077785)
(-1.279418732099505 -0.05558486412389671 0.0007592507120720218)
(-1.271545637253844 -0.03244806490303863 0.006090888222898615)
(-1.280099310022516 -0.05576032394079436 0.007295613436488935)
(-1.289985084637403 -0.03864226122182555 0.001627914482533946)
(-1.315093948111125 -0.05021748358260867 0.00819207546146713)
(-1.323304292176245 -0.0878202969953449 0.009410914675565256)
(-1.344255839344098 -0.06250026114581941 0.002240353175486057)
(-1.296771782112415 -0.07640354773916269 0.0001417830809795491)
(-1.345663795061193 -0.06330838906442379 0.0096691611439061)
(-1.297651816763866 -0.07681770996742465 0.009266439754689401)
(-1.314006837296453 -0.04967832673902178 0.001895053547464268)
(-1.181161124218829 -0.001186318233999189 0.0003355072810127459)
(-1.180583065882388 -0.0004848091299857622 2.742174235447375e-05)
(-1.179896901524194 -0.001551377826224564 6.63294007440796e-05)
(-1.179664969353337 -0.0009555900879030242 0.000181760382325792)
(-1.180050249565021 -0.001545101198931887 0.0003167249078963679)
(-1.180997682314952 -0.001175486415959881 7.678200117754077e-05)
(-1.18074587216973 -0.0004865488785817644 0.0001226073719755561)
(-1.182009754913671 -0.002167449891552078 0.0005558514156622968)
(-1.182151582306289 -0.00422165162737874 0.0008293602556854111)
(-1.180563464594963 -0.003541490457107524 2.823636122263715e-05)
(-1.183136879423536 -0.002929503239224639 0.0001803807605948421)
(-1.180728181245421 -0.003566207200722989 0.0006640660797806297)
(-1.183312173801247 -0.002945208361416379 0.0007864863469831343)
(-1.18184017312202 -0.002155004901387384 0.0001275633241841319)
(-1.242680867839082 -0.02243909665615683 0.004652216184063853)
(-1.255132528513366 -0.02604622029126399 0.001225482676506505)
(-1.249748385509726 -0.03812313968298577 0.005656984687703973)
(-1.236305304347892 -0.03475092751757231 0.0002682982585465967)
(-1.255703026538739 -0.02624751426199235 0.005320120437109369)
(-1.236743165807757 -0.03488668848114464 0.005347300992849997)
(-1.242200527378095 -0.02228046956828585 0.001070845752690494)
(-1.231736968342719 -0.01858844118029253 0.004093823333322618)
(-1.218549898219786 -0.02516412743832994 0.004135441133843245)
(-1.222197048861741 -0.01603147656359576 0.000826665617489404)
(-1.227680639808831 -0.02720528947835417 0.000474110629406284)
(-1.222555496999088 -0.0161326347384141 0.003595932493736588)
(-1.228045397703115 -0.02724772903770759 0.004408890000692935)
(-1.231325324691653 -0.01846517537293128 0.0009415191446758157)
(-1.587549562367532 -0.05543995692662169 0.04015672399252408)
(-1.611626173840854 -0.05786380008233346 0.06284345376667419)
(-1.500531650932276 -0.18867397279127 0.01616869836483636)
(-1.400291498988296 -0.2334631433198876 0.002472786999580177)
(-1.400751732763445 -0.2370981384061304 0.01091945899209862)
(-1.49729068280509 -0.1840081548703638 0.003847830676199408)
(-1.437140315419292 -0.1203228915121649 0.01370507594903242)
(-1.348507368129977 -0.1292451968785915 0.01239845167855596)
(-1.383813819189841 -0.08592043418327064 0.002659150878654749)
(-1.381166018252989 -0.1538838952335222 0.001562485265638924)
(-1.38567113142569 -0.08725002221195827 0.01144152314363923)
(-1.382023450429365 -0.1553061956038968 0.01142259875075939)
(-1.434698093708895 -0.1179882224453412 0.003201392526653084)
(-1.525105127041521 -0.2609446160802019 0.07282456180607293)
(-1.401276400021694 -0.2898568464822676 0.03028368617943761)
(-1.400920903294012 -0.3082741191169983 0.04424408850798448)
(-1.515793917238379 -0.2292319757604558 0.0568421907095898)
(-1.190185613635035 -0.006094976907083167 0.001529033070310636)
(-1.1933708475918 -0.007086226802814969 0.0004148791222508197)
(-1.19210926213349 -0.01049275325083633 0.001957518168167965)
(-1.18823437973841 -0.00958638522848693 0.0001211687190624352)
(-1.18842796150635 -0.009624866945480825 0.001768469901408651)
(-1.193587970651436 -0.007123983942609158 0.001807829063182528)
(-1.189982726766768 -0.00606317360449767 0.0003509352114219065)
(-1.187365194826439 -0.004876790160697475 0.00127092723820612)
(-1.183623695200084 -0.006399781231127337 0.00119273849092291)
(-1.184908482514454 -0.003986818592614867 0.0002344705037031841)
(-1.185919267813644 -0.007134160036882897 0.0001730379695931065)
(-1.185090899714331 -0.004007395564059462 0.001021704278032734)
(-1.186099342396878 -0.007132327558936695 0.001366874136015383)
(-1.187173733159298 -0.004851586811000496 0.0002915681865526033)
(-1.202453158859457 -0.009894259935148168 0.002425703421636879)
(-1.197422637200895 -0.008557195555996605 0.0004825142736014741)
(-1.195456350162851 -0.01350870824596596 0.002421229030743407)
(-1.200360710233449 -0.01458752072351689 0.0003012029643975311)
(-1.197657332436915 -0.008603892593317708 0.002101670056989458)
(-1.200597296129654 -0.01459887386260339 0.002631476601128287)
(-1.20219674122123 -0.009839184532400957 0.0005569342143277757)
(-1.208113792752165 -0.01179991738186292 0.002773588256605861)
(-1.212225936527912 -0.01991571956774902 0.003429214428381861)
(-1.214421569059557 -0.01343896915404969 0.0007274002690740237)
(-1.204957036767494 -0.01839316485315164 0.000209783260344402)
(-1.214738169599001 -0.01351987853832093 0.00316602604695449)
(-1.205224287054751 -0.0184595678113968 0.003190736178354445)
(-1.207830569752528 -0.01173194170838173 0.0006371055955005498)
(-1.279216374194682 -0.003284961458903775 0.003483910126286033)
(-1.269854837053957 -0.003089804172502888 0.0006961055636597451)
(-1.268498308129646 -0.01317484283156371 0.0039163308761336)
(-1.278620891486318 -0.01376270611720898 0.00030130139341028)
(-1.27002502871566 -0.003045929076158541 0.00323553499620882)
(-1.278815382931822 -0.01367558048683834 0.004114974986221731)
(-1.27902672386696 -0.003333884573242751 0.0007504534772332601)
(-1.289450506949239 -0.003723556775846956 0.003770816258278596)
(-1.300122724928652 -0.01678091647880692 0.004839012907193412)
(-1.30063048553051 -0.004114401850185235 0.0008787657569210759)
(-1.287317139980333 -0.01614394380590726 0.0002236252229891813)
(-1.300869652286798 -0.004053833937268765 0.004082492522009419)
(-1.287537796838088 -0.01608377794688892 0.00459598804511757)
(-1.289237850712505 -0.003777376680086145 0.0008106859869138247)
(-1.181120099720574 -5.73216000409118e-05 9.047499269537687e-05)
(-1.180968822229766 -2.669419745563739e-05 7.275811667402523e-06)
(-1.180971445370552 -0.0002203997546059326 1.481602187754475e-05)
(-1.180870014646833 -0.0001543596041723283 4.530550503191778e-05)
(-1.181012718950719 -0.0002152035576945497 9.680014792349098e-05)
(-1.181079370067971 -5.834038005184878e-05 1.968132419987279e-05)
(-1.181009211111736 -2.692033589560343e-05 3.472242889551877e-05)
(-1.181333630202415 -0.0001044832657866764 0.0001494835070627231)
(-1.181542472420631 -0.0005353364521951777 0.0002278054643088924)
(-1.181152973375559 -0.0004716983437628271 1.257794777874283e-05)
(-1.181607690710164 -0.0001368599900643426 4.466919763113961e-05)
(-1.181193921182885 -0.0004744538982676021 0.0001768885168432171)
(-1.181648919247106 -0.0001347782161837403 0.0002060903412100682)
(-1.181292703695306 -0.0001056543578219393 3.214035877679418e-05)
(-1.254326074408489 -0.002500934529293481 0.002802766738326836)
(-1.261602726701267 -0.002724017162189566 0.0006476987649623348)
(-1.261439489388534 -0.01116670347022068 0.003521832296823256)
(-1.253018240428139 -0.01082293525267769 0.0002119178966972106)
(-1.261756329968438 -0.002684375608483858 0.003005492429664015)
(-1.253162157882687 -0.01078522260785593 0.003357182681873896)
(-1.254186003426815 -0.002536567384705587 0.0006032983319208598)
(-1.247550255081216 -0.00224832766518029 0.002610769046148551)
(-1.240387350688682 -0.009098233901966598 0.002911547681125367)
(-1.241248208998462 -0.002136316023769303 0.0005257405640980058)
(-1.247252500570756 -0.00944922014791753 0.0002514820933006946)
(-1.241365629117441 -0.002106472610109746 0.002441314318291958)
(-1.247382957474075 -0.00939177765846908 0.003051624565933319)
(-1.247422309106953 -0.002281359171309915 0.0005629048502291466)
(-1.622900797075656 -0.02666352151416343 0.01242860969055866)
(-1.525411557436737 -0.08725735505782635 0.01483815076478162)
(-1.545329543071808 -0.0204110575323048 0.002262909242919141)
(-1.591554337483254 -0.1022105691360277 0.0001875688376038374)
(-1.546756397428209 -0.02017161606318679 0.01051851756971377)
(-1.593851424515802 -0.1017591137828276 0.01540422302729699)
(-1.620298845167346 -0.02691954624672474 0.002714016249774675)
(-1.193167769856381 -0.0006741982168023993 0.0009223178045094631)
(-1.194995015726346 -0.0007297571604062191 0.0002153918333951156)
(-1.194990784142883 -0.00300193890419686 0.001138947766263769)
(-1.192806703096863 -0.002916455394779173 9.317365404914411e-05)
(-1.195050153112204 -0.000719568969663019 0.0009971848354237032)
(-1.192860237381604 -0.002910419434724705 0.001073036971889992)
(-1.193114478794805 -0.0006831654977247416 0.0001988815602575588)
(-1.191439177823745 -0.0006067187461124705 0.0008465304620711136)
(-1.189575344210475 -0.002452092419639465 0.000904564033495998)
(-1.189808287916148 -0.0005733566772742522 0.0001674902620577332)
(-1.191339459260845 -0.002549951895965304 9.887807231850517e-05)
(-1.18985804221201 -0.0005658591297853276 0.0007766466465785043)
(-1.191391222683284 -0.002534423242571464 0.0009664577336907641)
(-1.191387717264227 -0.0006153347972251781 0.0001829126745517974)
(-1.19937009733063 -0.0008544814880770136 0.001159066443384379)
(-1.197057798940546 -0.0008147218396520653 0.0002324587356201511)
(-1.19674734906111 -0.003474054718971062 0.001258134253895754)
(-1.199268767555948 -0.003597402747390265 0.000131084549800543)
(-1.197115209450412 -0.0008039009317197067 0.001077998970492234)
(-1.199329262278829 -0.00357639709471563 0.001329128115986973)
(-1.199310113207881 -0.0008666331428716391 0.0002503293248774466)
(-1.201813040350706 -0.0009391845279777417 0.00124774956373589)
(-1.204392324957987 -0.004165144893012717 0.001533558433553383)
(-1.204388837273989 -0.001011285419734751 0.0002885521557416834)
(-1.201344062143592 -0.004057971986154361 0.0001226130275058881)
(-1.204454504274354 -0.0009970951067240844 0.001336457618365263)
(-1.201407370449936 -0.00404773138973631 0.001456481269915373)
(-1.201750255504956 -0.0009518841480805478 0.0002690153686149916)
(-1.345563177051009 -0.006081369778277947 0.005323803641882975)
(-1.364638772573832 -0.006903449198713313 0.001258232089080236)
(-1.362946944717471 -0.0278853795178963 0.007052336419443399)
(-1.341528935821325 -0.02643040116054901 0.0001727628598508613)
(-1.341909327874684 -0.02632796293650098 0.006664799866806524)
(-1.365056007333472 -0.006801641640726591 0.005858948918859468)
(-1.345203200390578 -0.006169640128401543 0.00114187623604725)
(-1.328634189980762 -0.005187250056722329 0.004847025656343699)
(-1.311190074390694 -0.02046242804144502 0.005498164003297223)
(-1.313587360557993 -0.004789203749912221 0.0009545608359524815)
(-1.327231605492003 -0.02160105001368613 0.0003504617582111602)
(-1.31385958514573 -0.004720499568534026 0.004444093515864098)
(-1.32755517708177 -0.02145903082901777 0.005804337185250984)
(-1.328322297667307 -0.005265110690015409 0.001042426434854978)
(-1.183292919513788 -0.0002733101367980578 0.0003861688211785143)
(-1.184021046692143 -0.0003107278447198413 9.652921256480712e-05)
(-1.183980398633002 -0.001261310893497773 0.000503852519070359)
(-1.183065779195962 -0.001194862074979941 3.836407223076115e-05)
(-1.183108984454815 -0.001194957019979409 0.0004499491401635694)
(-1.184064962400745 -0.0003063054593708903 0.000446352066213468)
(-1.183249693511152 -0.0002767897396956096 8.323773680931806e-05)
(-1.182632288166013 -0.0002221621919007222 0.0003240026470422613)
(-1.181908468836099 -0.0008467540015447685 0.000312364070805461)
(-1.182039459334033 -0.0001929548528492818 5.728519723635974e-05)
(-1.182505781366511 -0.0009183246612809924 4.164914441743069e-05)
(-1.182081241804761 -0.000190565149711581 0.0002657842885275269)
(-1.182548387877905 -0.0009103219188404525 0.0003646105983511406)
(-1.182589781469303 -0.0002254736929451523 7.01477244741405e-05)
(-1.225869009716794 -0.001607262563775994 0.001996278598828477)
(-1.221427780612367 -0.001535060999302077 0.0004032152438778609)
(-1.220840226179331 -0.006534719862288953 0.00220884867834804)
(-1.225695510568088 -0.006765832418287459 0.0002065584403485629)
(-1.225790621490876 -0.00672598087880735 0.00231484422270592)
(-1.221515248208791 -0.001513988026485227 0.001871146275059775)
(-1.225775323703089 -0.001630552794522222 0.000430712477652699)
(-1.23059567933782 -0.001769394979713748 0.00213602232458921)
(-1.235575534214558 -0.007859876127207979 0.002648737740319076)
(-1.235619101575782 -0.001911688490874891 0.0004918101500767528)
(-1.229717069550622 -0.007647933118342312 0.0001844114247991881)
(-1.235727363802856 -0.001884256623298261 0.002280327624131045)
(-1.229819730112631 -0.007623488560184429 0.002528109407797801)
(-1.230494991815225 -0.001794167011249326 0.0004601387407713823)
(-1.415708404343663 -0.009520262803008637 0.007228631312748445)
(-1.387680389392978 -0.008437226957205926 0.00139023215743517)
(-1.382420006719981 -0.03614170253936144 0.008336784178856343)
(-1.411264067017065 -0.03905244482522181 0.0003584764549051081)
(-1.38817147975588 -0.008316720898798979 0.006495363017032043)
(-1.411898719395308 -0.03879075829328353 0.008830009305497896)
(-1.415121594263904 -0.009662192639927104 0.001549773710357783)
(-1.449365933802038 -0.01203641332589794 0.008118825716685638)
(-1.481851741578599 -0.05761637946195108 0.01133022979982884)
(-1.490271324937817 -0.01466919925034205 0.001969460643619167)
(-1.438871229143978 -0.05241227275601591 -0.0002012900975928525)
(-1.491222189441721 -0.01446442990460094 0.00916765931882382)
(-1.439676914316821 -0.05221215421744625 0.01073954493491393)
(-1.448641691103761 -0.01220807084347019 0.001734622376244625)
(-1.185995447752912 -0.0004017857176560549 0.0005728889676283908)
(-1.184920106937757 -0.0003716420611416951 0.0001100174786827187)
(-1.184744469193034 -0.001599884901760303 0.0005948221470114599)
(-1.185886353752962 -0.001681506034349627 6.926335226551471e-05)
(-1.184964946914904 -0.0003668625195243338 0.0005101963376797631)
(-1.185932473077945 -0.001670136145598445 0.0006508099360852561)
(-1.185949495774855 -0.0004075479192685081 0.0001238621026019265)
(-1.187149041812439 -0.000458845744898026 0.000640311963656547)
(-1.18836138070564 -0.002063724451818715 0.000802759813624116)
(-1.188381179198344 -0.0005035144500045628 0.0001526045187110363)
(-1.186864856760201 -0.001990779792043295 6.516184293540895e-05)
(-1.188429457643384 -0.0004964713007743888 0.0007061793230695287)
(-1.186912054081712 -0.001988046828115121 0.0007441860682570339)
(-1.187101920691038 -0.0004648439035269211 0.0001380655798639371)
(-1.213856336921672 -0.001285521929913691 0.001639833646367524)
(-1.217436045069724 -0.001383788551044689 0.0003776404307094214)
(-1.217432338457218 -0.005697974866563217 0.0020188919077623)
(-1.213228196196007 -0.005553418428189715 0.00015338102748297)
(-1.217518019554552 -0.00136418149569911 0.001749917982569776)
(-1.213306634272708 -0.005537418680416266 0.001924838864367124)
(-1.213778926597061 -0.001303203207354166 0.0003534343444157174)
(-1.210468110693361 -0.001172355983457141 0.001531351090944044)
(-1.206845714498617 -0.004773920996961249 0.001680008431379505)
(-1.207266393357388 -0.001121049680844138 0.000308956669661543)
(-1.210347419964809 -0.004937772913748343 0.0001666823223857503)
(-1.207335543467304 -0.001105920661684906 0.001433117312042028)
(-1.210421340997392 -0.004909143853804147 0.001764793701044496)
(-1.210395036250385 -0.001189151809920162 0.0003305805117436114)
(-1.316811016539263 -0.04890217020262355 0.01387040276746115)
(-1.351970750780032 -0.06388402277410082 0.02409351386388442)
(-1.301598984867326 -0.07991938487188427 0.01978845451198357)
(-1.325191274374139 -0.09023871988122578 0.01290414005025213)
(-1.320050730468373 -0.05014595368716256 0.02030665652425117)
(-1.347773599535405 -0.06194266566855134 0.01638946622916992)
(-1.299069761767467 -0.07848366279549683 0.01005551182969732)
(-1.297637016945278 -0.008584256644048129 0.01325077242566322)
(-1.27885688033936 -0.006728162263095432 0.0158777668620204)
(-1.276586342009052 -0.00699626902340565 0.01133154134171064)
(-1.300506990865034 -0.008285589013658737 0.01855922684450958)
(-1.324488752103417 -0.01102118627876834 0.01566117739590103)
(-1.364963777089713 -0.01402258705149601 0.02658776567279263)
(-1.328264474249711 -0.01069689999379935 0.02198524764485859)
(-1.359724303574534 -0.01433304639180171 0.01891852395707766)
(-1.292228995130362 -0.03786131608588658 0.01193049528357031)
(-1.283449183074467 -0.05745054218937296 0.01650307853818129)
(-1.274755907257674 -0.03196406822004515 0.01499016633305717)
(-1.262995877823658 -0.05095889800504738 0.008010153885716492)
(-1.272694474287822 -0.03140074795515019 0.01030220977458128)
(-1.294778148693269 -0.03864381154732939 0.01738597448848958)
(-1.281484905034191 -0.05693683046316762 0.009881554922933338)
(-1.182319392784659 -0.00207573765278852 0.000938118228334782)
(-1.184158547439985 -0.002834576078074493 0.001907564955073366)
(-1.182502480899465 -0.00428203538028391 0.001217562925880418)
(-1.181550944976372 -0.003622854074731158 0.001433130496074889)
(-1.18106396058898 -0.003554410964932801 0.0007809592730223113)
(-1.183632398155575 -0.002820630129345544 0.001327416305192196)
(-1.182828449014207 -0.002088456084711279 0.00134940158863698)
(-1.18193553961976 -0.000259712265581548 0.000598823140110803)
(-1.182008895062887 -8.742597510804482e-05 0.0002832489466100059)
(-1.182451458585413 -0.0002460094975825534 0.0008314011980904185)
(-1.181499230987715 -9.40038324859188e-05 0.0002081701198184976)
(-1.182813971219825 -0.0004527173093094148 0.0009952659109980992)
(-1.184697907983428 -0.0005978883115981156 0.001961449415949237)
(-1.184151613677189 -0.0006304367496681754 0.001406125582496522)
(-1.18334274271818 -0.0004293690968571396 0.001388198647821786)
(-1.181457284847779 -0.001144215174995819 0.0005665109277863575)
(-1.180824214223256 -0.001562378167350364 0.0007810489728728745)
(-1.179908650504268 -0.0009340408541798386 0.0001545466738532761)
(-1.181517332949964 -0.0004458287736243063 0.0002775253186707577)
(-1.180360703707174 -0.001607950465004101 0.0005393733955018485)
(-1.181951759551335 -0.001148000953072909 0.0008094604135737551)
(-1.181031255991451 -0.0004525590802712531 0.0002028643997221915)
(-1.23245005345289 -0.01789592281127255 0.006918808239414379)
(-1.224258181856409 -0.0156769237799018 0.008785763462358107)
(-1.22989710074415 -0.02770245614900749 0.009941669467993085)
(-1.219176158624905 -0.02536158391990437 0.005045051326657114)
(-1.233681675028771 -0.0181020695825335 0.01000954830787653)