/*--------------------------------*- C++ -*----------------------------------*\
  =========                 |
  \\      /  F ield         | OpenFOAM: The Open Source CFD Toolbox
   \\    /   O peration     | Website:  https://openfoam.org
    \\  /    A nd           | Version:  7
     \\/     M anipulation  |
\*---------------------------------------------------------------------------*/
FoamFile
{
    version     2.0;
    format      ascii;
    class       volScalarField;
    location    "0";
    object      mag(grad(Phi));
}
// * * * * * * * * * * * * * * * * * * * * * * * * * * * * * * * * * * * * * //

dimensions      [0 1 -1 0 0 0 0];

internalField   nonuniform List<scalar> 
12682
(
1.138810957092303
1.12937607059412
1.038387791222442
1.132820884082176
1.136420017446504
1.176127893770685
1.118032079912777
1.10454084040965
1.071409362824351
1.060623457853201
1.173182801119554
1.166528574343882
1.139403816874197
1.138911268768343
1.139129605567288
1.171402052353213
1.168302837338499
1.122365903856951
1.124212847712878
1.110954359972192
1.084967855843676
1.074195037639442
1.063256158728998
1.086925261635949
1.168158047680683
1.106455845590871
1.129841054277863
1.1983331448107
1.101232618517108
1.195384899909715
1.193998480327441
1.17111007974221
1.127685524066001
1.097844076937666
1.185360127556988
1.177047600050564
1.139514701767391
1.134247152797162
1.191435704975109
1.138952305786262
1.186895528543699
1.175318233187347
1.183848500396729
1.132618153196499
1.13844166187681
1.187920060424064
1.224619147637537
1.172112943775381
1.179966362729394
1.212616338761283
1.185511880227845
1.331150812146257
1.262329305717319
1.26592075673844
1.325231035830504
1.18301062565515
1.179518080244982
1.181992638944448
1.180353506957383
1.22047620192945
1.249841498130498
1.252859225501135
1.218473917661973
1.360501908411655
1.353395830563029
1.36446834626141
1.184522293176612
1.191952862327219
1.193203547056964
1.183466352365333
1.213886681712658
1.195309071928989
1.196654012099821
1.212101796900735
1.289900326403681
1.26839088691785
1.279628737262515
1.299984606731102
1.181417154946171
1.180826407380019
1.18150109725274
1.18109048270983
1.247826677598285
1.261331592489027
1.262088411189588
1.240300334391222
1.534649670342079
1.526404065655643
1.191547140998334
1.194938822115744
1.193276765278239
1.189527802187316
1.201941929869023
1.196694445241024
1.197232470090924
1.204332977593965
1.329318859665864
1.362794398245543
1.346336555520065
1.311065407756511
1.182720234984851
1.183936851868853
1.183381241716878
1.181866838516234
1.230804926881652
1.220768615184637
1.226070078499756
1.235490104212241
1.48807881836041
1.382364299633135
1.389236138216502
1.48193637326776
1.702641571128255
1.657318163608359
1.187245261327737
1.184700520561234
1.185056182334015
1.18831448534291
1.210623809056601
1.217362343122375
1.217692867427988
1.20678507967855
1.312921839996422
1.238545949623095
1.284318867960351
1.255419804039711
1.225169522169038
1.23583195904085
1.235977897116813
1.257079954900439
1.282565756100092
1.31373229909933
1.241095214767978
1.240289707384768
1.312343084433487
1.179673377468944
1.177529475979065
1.173374062969688
1.172597577913943
1.173874398170181
1.1790439387574
1.178105065943083
1.182895833243651
1.180523630267501
1.175962657378764
1.187221174805505
1.17648637008684
1.187955992066965
1.182228595318085
1.217921032408882
1.233592261927839
1.213293583241803
1.201799482120555
1.234996210589597
1.202483110734604
1.216757865047469
1.204924616081605
1.186111755333079
1.194315501133285
1.192748916632383
1.195150032536917
1.193395480213339
1.203950406250907
1.291450273187591
1.271262015176976
1.262963058678443
1.280625841387101
1.271974167762293
1.281333946799786
1.290564757400753
1.31607788451757
1.326248551204281
1.345709873426049
1.299020622273789
1.347186881669225
1.299956562743898
1.314946955522299
1.181161767617787
1.180583165744838
1.179897923296394
1.179665370394783
1.180051303609657
1.180998269811213
1.180745978781311
1.182011872834155
1.182159411302114
1.180568776856483
1.183140519963081
1.180733753563722
1.183316100405678
1.181842144756911
1.242892149571901
1.255403350135568
1.250342514009346
1.236793638609942
1.255988585356152
1.237246674205788
1.242400787287752
1.23188402405304
1.218816716998317
1.222302465784636
1.227982127686682
1.222667222050542
1.228355557592569
1.231464130369561
1.589024784035535
1.61388860930679
1.512433314320072
1.419622286421018
1.420718191148451
1.508559974172271
1.442233584941107
1.354743578844738
1.386481185690744
1.38971301517589
1.388462444322634
1.39076932224286
1.439545098161866
1.548980683543802
1.431261556235972
1.435120151475609
1.534082635614058
1.190202201976384
1.193391958501883
1.192157046119602
1.1882730555962
1.188468251675092
1.193610599432222
1.189998224886472
1.187375890029583
1.183641597640103
1.184915212845887
1.185940738803259
1.185098115636238
1.186121574070558
1.187183682338153
1.202496311706543
1.197453310362017
1.195535123989747
1.200449383004646
1.197690080916049
1.200688935262167
1.202237133152577
1.20817460123943
1.212394373373809
1.214496143427451
1.205097428832139
1.214817530132551
1.205369867944183
1.207887713981935
1.279225336134859
1.269858786890145
1.268572769634814
1.278694993736764
1.270032802700332
1.278895123981576
1.279031289035815
1.289461396786257
1.300240022103491
1.300637290109418
1.287418384138192
1.300882374604083
1.287646453536775
1.289243639308006
1.181120104576765
1.180968822553872
1.180971466029631
1.180870025604634
1.18101274252491
1.18107937167284
1.181009211928983
1.181333644280602
1.181542615657305
1.181153067629871
1.181607699480416
1.18119402971546
1.181648944905487
1.181292708857383
1.254331698999877
1.261605833770304
1.261493830328918
1.253064998985411
1.261762764973105
1.253213064746555
1.254188713605214
1.247555012833306
1.240424135011296
1.241250158747698
1.247288319188731
1.241369816934743
1.247422045859719
1.247424522253456
1.623167400752977
1.527977236836786
1.545465990799653
1.594832983351843
1.546923684701853
1.597170801998332
1.620524722275156
1.193168316809249
1.194995257961288
1.194995097490204
1.192810272149854
1.195050785787198
1.192864270516862
1.193114690957568
1.191439633038444
1.189578215396867
1.189808437852423
1.191342192329083
1.189858430231583
1.191394310389509
1.191387890211255
1.199370961773095
1.197058098762597
1.196753052823675
1.19927417020665
1.197115964740255
1.199335331154722
1.19931045245194
1.201814055044939
1.204400503425316
1.204389296411562
1.201350922011658
1.204455658455053
1.20141507200406
1.201750662599746
1.345587451405222
1.364656814137036
1.363250418651877
1.341789283605444
1.342184125009209
1.365085525807318
1.345217833171158
1.328653157150766
1.31136125913092
1.313596437828857
1.327407421556026
1.313875581081658
1.327741288252682
1.328333141393229
1.183293014090868
1.184021091399828
1.183981177688097
1.183066383205832
1.183109673476729
1.184065086149523
1.183249728812695
1.182632353416113
1.181908813432806
1.182039476471011
1.182506138681765
1.182081287045459
1.182548794468759
1.182589805044295
1.225871688801575
1.221428811780063
1.220859713248727
1.225714201509253
1.22581125996523
1.221517619584225
1.225776483872597
1.230598805198053
1.235603372532603
1.235620678286445
1.229740865399181
1.235730904351045
1.229845956813011
1.230496385872496
1.415758868820455
1.387706735102927
1.382917495591317
1.411804338003586
1.388211588625762
1.412459091734488
1.41515542832481
1.449438650182416
1.4830147016497
1.490344821212122
1.439825510578089
1.491320516855184
1.440663411241584
1.448694168937141
1.185995654175918
1.184920170326698
1.184745698759261
1.185887547905556
1.184965113539404
1.185933827668765
1.18594957226931
1.187149303169159
1.188363443789208
1.188381295665574
1.186866528158351
1.188429771155005
1.186913952343456
1.187102019731375
1.213858125279029
1.217436890076056
1.217447346526135
1.213240915905409
1.217520041372682
1.213320797143304
1.213779677662115
1.210469647062772
1.206856325895379
1.207266953385525
1.210357503550011
1.207336900539874
1.210432582563816
1.210395665534651
1.317791737568052
1.353693679065111
1.304200371268896
1.328322798522104
1.321158926087423
1.349295810427804
1.301477254731153
1.297733061988731
1.278973139686398
1.276655803344613
1.300665802262517
1.324627190372024
1.365294713605126
1.328489476186148
1.359931442573057
1.292838579185001
1.284840348811324
1.275244694100784
1.264048875340948
1.273123469024563
1.295471370047748
1.282787203561595
1.182321587093502
1.184163476510222
1.182510860677341
1.181557368268347
1.181069567272318
1.183636503303228
1.182831062464467
1.181935719849378
1.18200893223404
1.182451776462532
1.181499253066239
1.182814476585407
1.18469968259241
1.184152616352276
1.183343634874119
1.181457974742599
1.18082550614348
1.179909030328946
1.181517449657344
1.180361922159663
1.181952594243461
1.181031360122342
1.232599394863048
1.22439007322878
1.23024921917771
1.219450354971942
1.233855077098722
1.223297254645275
1.229139835796257
1.245832732370381
1.261576531114598
1.259692001181896
1.247403655055031
1.234327076760314
1.225855012748419
1.235662293858158
1.224699754155989
1.243717419116429
1.239405494051339
1.258696994995
1.251384182183253
1.256952593448728
1.245185646283109
1.238056824827016
1.444606989199887
1.396870148199115
1.395604414926959
1.356867668924948
1.390986545719006
1.452477012957832
1.393491469016257
1.479859425977928
1.416679747743366
1.408615967142412
1.49299703444988
1.476514093776185
1.404885038616692
1.370781721954853
1.399015263668931
1.40299803693683
1.415425209126233
1.462983711395114
1.538036231533255
1.42773996356471
1.442654610013928
1.512708146341205
1.18772476983229
1.185980495470693
1.187048675929444
1.183994489413305
1.185431214410355
1.188302016964778
1.186504255294197
1.191201688945357
1.195386920306898
1.191839277604591
1.1947026675246
1.188309366653563
1.186544867823947
1.185974486778778
1.188909441065222
1.19057098808689
1.189442629762562
1.194660311647221
1.192589724336341
1.191183711732168
1.188854364804624
1.19400383540984
1.208680230087774
1.216341574905213
1.206704971273365
1.213012536091174
1.215378363624406
1.209541074132557
1.205886873567036
1.203840972029869
1.199629645607289
1.198887371844979
1.204654890619465
1.209687640147389
1.217584563188491
1.216570220174408
1.210590785563201
1.202956539483534
1.201914797717159
1.198824594408994
1.195973667466605
1.198113585014174
1.203734247252228
1.20119643769866
1.227711704302087
1.227101777114767
1.18326141200383
1.176353664092396
1.189034314968782
1.205666636115509
1.384904884024836
1.320117620387201
1.19136104593348
1.210630945223865
1.382803974515699
1.40104647536762
1.462681569778494
1.385055828418899
1.300992079121284
1.249409004337896
1.185466990448339
1.17837261084476
1.380027443735555
1.284581521756406
1.361469578304203
1.308569750300591
1.867720767108059
1.80455530669029
1.774665113271008
1.896145902548887
1.668088458937783
1.497735578620436
1.699835803442671
1.579736009660812
1.833387445593476
1.556883883771853
1.822933482956356
1.803319556791446
1.708198561187722
1.651441825747191
1.290712625522063
1.226674277849402
1.214277088395831
1.307351618954297
1.234336252762198
1.312551064897785
1.50090874294311
1.367828429329176
1.438763776572088
1.524486586976899
1.351176959168164
1.460622161380746
1.362133985784471
1.562868913187662
1.51736470318446
1.377173982070317
1.404906380127588
1.402647030968114
1.532022417034052
1.506024299908767
1.562407021296003
1.428832447486816
1.40849441056771
1.586920620681116
1.780104907612401
1.523444913757857
1.576720943352094
1.676990002974686
1.498708413118735
1.340059691862038
1.383201222116885
1.424527467985344
1.564113651635978
1.43323800674306
1.566672125893412
1.438228491676301
2.465564436214368
2.065441616485488
1.791714894004806
1.867005705158997
1.820517797208326
2.341108711013377
2.299050936475351
1.637865069062004
1.855486461973944
1.854497970579698
2.039540153039035
2.191016143504586
1.858442213741068
2.274326919541996
1.762431393357457
1.764416929518495
1.645308218123417
1.722899576488701
1.588124177283922
2.156720191962918
1.816144788822644
1.771237622465815
1.820533464426016
2.004356906007666
1.758622262807679
1.881919880002262
1.843363735089043
1.347663940030094
1.30507308892332
1.334418741341849
1.314961438073755
1.296225179237456
1.232911481624033
1.227010620185792
1.270777495984859
1.227539760543035
1.295247697251789
1.277524590167827
1.335264927609691
1.279604317377814
1.346432815052897
1.268103836515651
1.183703463999556
1.183951224410939
1.186831477212533
1.180997149060563
1.185221786377268
1.197928627266918
1.190210400198957
1.188476609338125
1.221744906710227
1.264464937182397
1.254935278414494
1.228085772480937
1.215115452698607
1.201719834473181
1.220703970308919
1.197528152270747
1.363639627618003
1.418028941045808
1.343451261920476
1.348300996074476
1.387493781711864
1.269287780235368
1.289552791486797
1.230920876853624
1.243943564143284
1.24005924814289
1.215217266869164
1.203620161739587
1.223470849642831
1.234707261443497
1.211776713754057
1.574976771952182
1.487669433975114
1.616478383392194
1.462451737318287
1.49329328972398
1.377147174558209
1.411028244128149
1.444018054909324
1.508948977386427
1.409479057893322
1.428654555804034
1.327286422493799
1.299933483354186
1.317774867597502
1.278281224929412
1.293483506626682
1.264532756407275
1.258428569628646
1.2739799469905
1.261954771181527
1.278727319952159
1.210655410554969
1.185331433121815
1.18831992723197
1.194195012063189
1.190846850544206
1.199802985010865
1.189973290306559
1.207241893335064
1.196117105059743
1.466072599481108
1.377842312349497
1.359049173601772
1.412634085562205
1.444131877183854
1.391777721624678
1.348695884305256
1.34330044445156
1.386994721113755
1.364687978131535
1.327427356154732
1.432160840365087
1.462041947569531
1.39337627643318
1.374392134923281
1.336458472560625
1.299090819022812
1.30763439666701
1.291663840445612
1.314774120643858
1.325360599995035
1.307848476756404
1.562937914998546
1.452074179383621
1.503399022696589
1.418473807494632
1.368544433954718
1.404372226578728
1.422786267226779
1.374245157555476
1.330487301861432
1.339970901993221
1.359836970260877
1.332756476868324
1.331939903396564
1.3669018162261
1.350090469817938
1.298664427961491
1.324035079409309
1.318578408881505
1.171396572734895
1.138887308855216
1.138828239842513
1.235255915565783
1.235981403651308
1.226089484955887
1.287322600951092
1.260244067485614
1.264882332984858
1.291404430501821
1.179072085861581
1.181619812846554
1.177519408497797
1.184216727173877
1.189412112080768
1.191634595028958
1.186230486643518
1.175019911146408
1.174863071889295
1.173561676748355
1.180909864429517
1.179302653274789
1.181124496820063
1.182793612637232
1.196497935440707
1.187286198534825
1.194650847669714
1.196803450813897
1.206852483174415
1.199330041478891
1.209798895892857
1.21624207105637
1.214544493564202
1.203789636083085
1.237740532206001
1.220214924779899
1.241876985366644
1.223709966957894
1.194242283453386
1.201799739111115
1.198911136021463
1.202850036503703
1.213906801708414
1.219348759414578
1.207521442355318
1.20802200486748
1.218155842136458
1.219805383200882
1.247502610857829
1.254595881014943
1.228559994213166
1.23491031308571
1.181168845139647
1.183833034299309
1.188244602279157
1.194723890780434
1.189023494879297
1.198816996355067
1.192715639805506
1.180950152712172
1.179530585255665
1.176998690408946
1.183645124691498
1.185402291816435
1.188844558787627
1.186967981551203
1.339996007654718
1.307269578032767
1.359621558989903
1.325663797551528
1.367419824594339
1.331569144263025
1.31194542381782
1.292056228059222
1.300942619360594
1.316481936802388
1.309279437820608
1.274724750841644
1.295787968009272
1.286314310151666
1.377221514674162
1.352853311867924
1.38933320414538
1.323687498041372
1.348292506146181
1.338981238969433
1.316739662575676
1.287740760870681
1.298977555539357
1.278066098341759
1.30355146160466
1.271312937063687
1.291207227930601
1.281734389497099
1.182217290276739
1.184864766224466
1.183511040038773
1.18437374444062
1.184544658012858
1.185753941350913
1.183044204819668
1.184494083586456
1.185256526882818
1.184462534276133
1.182787676506269
1.183292915951115
1.185729807042082
1.184033490532218
1.185425935619567
1.185607599863087
1.188140627139406
1.185257540477712
1.186838797479054
1.184053848471491
1.186687831382579
1.181481052548515
1.182617809356458
1.182175804964657
1.183463152722392
1.181798747217824
1.182286290801007
1.183012949228827
1.18780573488137
1.186710550731454
1.189069134696768
1.190042619402297
1.186110351692166
1.188719759122699
1.18763656292389
1.194297000829423
1.199642345411263
1.196416749821859
1.193832522095032
1.192379224958054
1.198001329048679
1.195821570082832
1.194060880968423
1.191997818501658
1.19553282217093
1.193032316269796
1.195092556803584
1.191202257839993
1.196642559818738
1.191231833097669
1.187180327795167
1.191217652137182
1.190124562046304
1.189884320306245
1.188766686951396
1.192662414582612
1.231810458531131
1.235525110393642
1.225843446734757
1.237674973024921
1.22349306174753
1.22771073678529
1.233687638062671
1.272424396025911
1.252791516030344
1.260707013428579
1.249363504914737
1.26775979856145
1.245869398569249
1.256679259554285
1.241030600098063
1.261016163898268
1.247137923024631
1.249659686902322
1.257432202814106
1.264019131760765
1.243336776155027
1.240339328795649
1.225461700115857
1.232854885711096
1.238951682964776
1.23001825199884
1.236138907142183
1.243628307255442
1.207737927895111
1.217622705679114
1.210685695618603
1.212149671695124
1.216591600623203
1.209126659615731
1.219263924692491
1.207708378690706
1.204238039862972
1.207479913344836
1.200023170658056
1.202449960506346
1.205695326473276
1.209676605688467
1.213950772503373
1.218509815236115
1.212786626777655
1.223764651908032
1.210721980368195
1.221288240558555
1.216146656772234
1.202921944771055
1.199769592512293
1.204768306381514
1.206087687342823
1.198678767072069
1.200973807619074
1.204131963808118
1.278110906680753
1.274691846015966
1.28514527732895
1.267184860594894
1.253048376922182
1.26139282746725
1.258129808044467
1.304476733973436
1.281669607210659
1.270771589974161
1.282887968280976
1.29373532788685
1.274201346415806
1.263367185117627
1.252435252985814
1.23626109336166
1.242529090649048
1.234678524583083
1.247597724528564
1.240385023919721
1.246551052417648
1.257306865150247
1.251266965633364
1.265363463083781
1.25824851960136
1.238632341383398
1.245302365660919
1.251638321564099
1.245617534204325
1.229351553532399
1.235165307880067
1.222824923588333
1.219265278045409
1.226449828586321
1.214794907752431
1.206354875804891
1.209711535277998
1.205983021776887
1.212014276643791
1.212198654003635
1.208863251253875
1.221890825559887
1.215060687959581
1.226726920766019
1.226566323559695
1.218762390607752
1.217972149483696
1.230288142474147
1.239579391224021
1.225575885424356
1.230429061398366
1.225122755270126
1.221094575531235
1.23450835063502
1.229972402278572
1.218055548894866
1.208561599071402
1.218651450784682
1.215241267958617
1.215268088599829
1.221917495030693
1.21179138766402
1.213272980421573
1.20534411357602
1.208359667506337
1.204333302324551
1.188869553969795
1.186689814579468
1.18586851503004
1.186915750289345
1.18717847968562
1.187461094952225
1.188362455187103
1.189897032262834
1.189668926347093
1.186666954638401
1.189990095222051
1.188167874321794
1.191456214474745
1.18830944484323
1.191888630327075
1.191984084185035
1.195903167747555
1.192363711179682
1.194190634693407
1.193517407666873
1.190189224093693
1.190815971719145
1.188755361933504
1.191439982830038
1.192507552760774
1.193063190416013
1.189337691727655
1.190286778768871
1.199733165479763
1.201580958797946
1.195485750979685
1.201889846067687
1.19761835582782
1.203868856863545
1.197490611070287
1.196321964858891
1.192855582961605
1.191720053171664
1.191749612093402
1.194346013314778
1.194683235237577
1.193589277315438
1.202185988612405
1.204438085769637
1.209650846602579
1.20240848489181
1.206531085335461
1.19971473735864
1.20504962764166
1.198608780521123
1.193751799447102
1.199324244061105
1.198252296993389
1.196890780303586
1.201268560487439
1.195747854403046
1.613886603019779
1.482769680293173
1.316349060283791
1.554137676401857
1.626198987940117
1.237890538848976
1.892149785331677
2.044219770472842
1.728728235871696
2.155419015021674
1.732785425945509
2.334801548107624
2.01707562736954
2.046833374852016
2.209869613612066
1.611874699931826
2.234547146563218
2.064207360753125
2.225636708840173
2.272821345509239
1.180763134685063
1.005829636863737
1.182513252844209
1.060655305672711
0.9954349316007928
0.9131519589651682
1.141612216421144
1.173340610997586
1.015360010642977
1.017540143953669
1.214323690453623
1.056489933267885
0.9803272960094164
0.9293764088086238
0.9429099524922168
1.2972237764616
1.324099663017782
1.315952998169149
1.290935276625228
1.185028934010408
1.185802854726039
1.186285521290969
1.184559592673168
1.195011397915755
1.200480261938276
1.198798295264027
1.19657002545862
1.276268878739189
1.255421645426791
1.271243171517939
1.259551072000226
1.208734056782728
1.205175753200671
1.203339192847507
1.210763246929997
1.282479889001143
1.29020330485877
1.270846666429937
1.264614815051353
1.21606858866152
1.207361995360506
1.213187198784027
1.209949514846442
1.189487221109835
1.187265006052757
1.187763816347067
1.188968948189932
1.200584633654402
1.202476679378551
1.198415448916952
1.204830618741346
1.281986760683516
1.304490686915656
1.309530934860689
1.285934909758981
1.410556312628151
1.394480550365688
1.360025563952104
1.348945215073661
1.372434956527697
1.333559009848919
1.382017253367284
1.340294156609233
1.182672998202548
1.183122803152329
1.183979511761439
1.18352102153383
1.18597571899925
1.18874111541114
1.187415422770413
1.187259498857649
1.185407306967706
1.184029374235172
1.184904095708448
1.18630961931924
1.196272019040971
1.192663628515888
1.193716884532898
1.197404344405731
1.191890338432809
1.190759637509243
1.189375674664386
1.193350847199485
1.187282150745781
1.189685105422495
1.190675103364833
1.188222516190004
1.264024633556083
1.24944303439988
1.252093938625229
1.267217938709319
1.24244896216234
1.234667955891481
1.231703767648367
1.245914777512497
1.227353444795531
1.237395061843688
1.239640505145726
1.229289973249292
1.215131042335806
1.22527681742665
1.22270148652632
1.217402087197739
1.200590250504253
1.205708869472444
1.207061763862387
1.201821119927566
1.218899616773285
1.211760931846493
1.213266033112475
1.220594872129658
1.311887057174636
1.288025623923541
1.299803181512945
1.278502719823117
1.255286432272291
1.238257750501677
1.250136842963926
1.242602390491934
1.254200023505425
1.269239545408418
1.26154840791907
1.247838409887949
1.220786877961539
1.22828281868284
1.248408865888639
1.237371936505989
1.223380156266717
1.228379626765814
1.220125700077923
1.232109109043872
1.219471751987756
1.2165719209018
1.223504118390341
1.212990495630759
1.2419362716202
1.227246059615669
1.236569203181033
1.231859889354764
1.214589976707336
1.209501919845535
1.202056888468624
1.205359649844527
1.190533832802262
1.190303098472023
1.188770696497358
1.192127605737818
1.191478909804651
1.19320612806073
1.193775903697714
1.190937277331832
1.192573210117381
1.196684532340026
1.194927775169754
1.194240784164176
1.197099920553348
1.192392295733474
1.195076642714334
1.194302467066587
1.203114538828734
1.210813389698316
1.20758565742659
1.206065796798331
1.199452955028856
1.199087638754936
1.202187997328964
1.196518801387041
0.9571619639739912
0.8575217371159777
0.9372143673126452
0.8975857209240226
0.8781235628109623
1.570440080154311
1.491003208056147
1.476424460164021
1.380543039373649
1.453220960458453
1.37671889937921
1.374186491419346
1.35678968915243
1.503708076233137
1.309017968027538
1.274631128121381
1.493317132214588
1.389267594268022
1.414912352229128
1.32933343149667
1.36891084970597
1.352955548081363
1.347166996866668
1.3151315740538
1.308755020125335
1.333711722873042
1.306460926967358
1.288063202985458
1.284666717196896
1.256983010393644
1.272511857397407
1.267250986186024
1.290688255534602
1.271587541151958
1.245951591266573
1.252970057791339
1.241429558072157
1.234936556047643
1.231865591198428
1.227405572741844
1.224038941923578
2.041738884634211
1.331947006912065
1.191435706323873
1.277264754564486
1.173439518587188
1.064218623569536
1.090484286117582
1.038025514549969
1.234009124156792
1.225794034846972
1.256338624597777
1.244045140201072
1.219042997980191
1.197565232269324
1.184103233457727
1.187063217644055
1.267558711287478
1.225828647576389
1.219224034097945
1.265126915875968
1.285851325789252
1.196982494513514
1.721754296199022
1.643073167151494
1.746806102896232
1.717821215203006
1.766281182479392
1.651109755275502
1.53518349168028
1.652919491652049
1.196815081122844
1.193246905710674
1.220171153164568
1.262072036552916
1.242653175230655
1.212959101982343
1.198741185464707
1.204906854128459
1.226253115427106
1.213518700384226
1.182639893379807
1.19326597999385
1.191232667887136
1.191555250876674
1.204084021858407
1.197463598397727
1.19863869650675
1.194818110538771
1.196825514726903
1.193893453390799
1.19504536051139
1.195632807298939
1.20224810042117
1.201129517927425
1.746099231205714
2.021405473253992
1.622701964398092
2.09940228502839
2.133160745618444
2.490133275352287
1.957752527886655
1.675027359388431
1.010556259051296
1.195812249436001
1.196416016018391
1.199502123081669
1.197637431735664
1.00760697242657
0.9780160554458829
1.148634526855081
1.148153451270915
1.138940348189124
1.138839980127149
1.138960536584348
1.148519227330647
1.148275648083627
1.128853342161319
1.129049941190511
1.128175356981229
1.099408291198935
1.10267506442754
1.100519364316429
1.101747812694659
1.03988993917163
1.056087570451889
1.062639804744347
1.041568130363462
1.068472801973758
1.039251281188129
1.057692946630849
1.144999282851311
1.126974026011498
1.132350068530334
1.150489755805336
1.126353115564297
1.150031847577506
1.145687023837329
1.152808558588407
1.138392490710859
1.136083822163928
1.152578471647927
1.138167088599774
1.152305198532559
1.152944431443309
1.173309236949351
1.174538074768265
1.171640596066315
1.162673373727382
1.161021791321559
1.16330999060298
1.161835870741134
1.093274180434997
1.115313711918367
1.089338948985464
1.065859525828726
1.086063534401005
1.084288434153827
1.067681464134861
1.077958294962457
1.103667510129045
1.091085958220004
1.094550929249124
1.064676345014425
1.08311026888566
1.059839832315038
1.049952222369554
1.056127994536834
1.059514461194722
1.058988119011209
1.075766564445284
1.050809117129953
1.055549504955878
1.060458934331169
1.078299164665809
1.060128926154294
1.05317008925689
1.076772015461371
1.05266648966243
1.061858624716392
1.17025457241136
1.172126655294033
1.169191230817395
1.159667855974256
1.162039900049315
1.161500496041033
1.160275840399145
1.165569061666612
1.165211043033542
1.166164594140338
1.157960081260558
1.157081924685693
1.157728186328179
1.157316014233269
1.149325297611501
1.139165475566453
1.139374046735532
1.150202183967706
1.139166660849206
1.150273696601747
1.149226027240026
1.148847623170312
1.138881837587974
1.138983662421219
1.148815199706014
1.138983905281654
1.1491327858181
1.148504042225443
1.149504028950747
1.150524633117581
1.139293899462974
1.139087662892151
1.139150606097635
1.150393401010379
1.149732150197967
1.168469087436429
1.171028551895413
1.168099461067166
1.159239610537713
1.160903730597675
1.161110695807257
1.159015807703455
1.167331534650124
1.167243371957148
1.166277075616591
1.158407792577071
1.1584300439594
1.15905202259954
1.157770869149892
1.128233446372578
1.120189703969425
1.127301732004723
1.097704844456997
1.090441341513448
1.088790828810006
1.098933789509225
1.094822014059927
1.126533908935949
1.097747575493617
1.128074269350956
1.127623274882595
1.098629590781936
1.101088297374231
1.121872688918855
1.092769113234865
1.082717211454074
1.120707481785054
1.123599302238368
1.096853293549507
1.087682994620481
1.075682354256269
1.058793846836312
1.06613945939959
1.088771181981557
1.061598267869915
1.079976922897667
1.069044315751352
1.091317091797055
1.094717447176831
1.071948984822029
1.073236104077459
1.070973434109028
1.092422236857758
1.093746808230202
1.089585986296832
1.082409016691945
1.062754372701955
1.070998426178768
1.080947917919312
1.069687885536161
1.090781869993906
1.069888241646332
1.06744876294032
1.089765244445685
1.09055225017564
1.072618976256666
1.070301312729802
1.093071744628995
1.187186686402011
1.191531714722911
1.174923638811036
1.158381247432103
1.137869329563971
1.142724974113122
1.154670111879932
1.13612898253706
1.118296345697572
1.105580683968842
1.123783279062203
1.117529777520465
1.122619935185288
1.13706958827196
1.143563324864396
1.131373946039109
1.123118733462902
1.147466731433485
1.125081187120517
1.141285461067243
1.149056288578013
1.196332793880473
1.196387805402013
1.19880949844915
1.168501262488623
1.171566927120285
1.171218237647751
1.169179974747444
1.134200660028591
1.116754496939878
1.103831394082537
1.113627717642447
1.115978271512372
1.120278437484061
1.131217960660654
1.195004805801599
1.197189557525105
1.196080043002301
1.167031205963433
1.169020285824977
1.164572755367203
1.170424018425487
1.181020974961501
1.179004887133468
1.195142309385076
1.16068658783456
1.147408663800266
1.145862881078803
1.161788179281209
1.158657057908173
1.146631570506742
1.180515434724589
1.142426442669319
1.131322873338304
1.149383627612686
1.123271400392799
1.133777029268794
1.124841643168616
1.120424727916224
1.145131603194448
1.116976382275173
1.138055533239523
1.141901041329287
1.121959881588478
1.112105794892255
1.1104808977979
1.093774933079116
1.106578034176561
1.12713445032021
1.10647705132331
1.190939555281172
1.19386334310903
1.19127898506727
1.155676839496659
1.166768422264593
1.160877651632529
1.163360217237917
1.181722254297516
1.176029348763775
1.180809302035847
1.16635620292069
1.164217627103664
1.163798376384563
1.166572969974121
1.15230802783303