/*--------------------------------*- C++ -*----------------------------------*\
  =========                 |
  \\      /  F ield         | OpenFOAM: The Open Source CFD Toolbox
   \\    /   O peration     | Website:  https://openfoam.org
    \\  /    A nd           | Version:  7
     \\/     M anipulation  |
\*---------------------------------------------------------------------------*/
FoamFile
{
    version     2.0;
    format      ascii;
    class       volScalarField;
    location    "0";
    object      p;
}
// * * * * * * * * * * * * * * * * * * * * * * * * * * * * * * * * * * * * * //

dimensions      [0 2 -2 0 0 0 0];

internalField   nonuniform List<scalar> 
12682
(
-0.07889452003971559
-0.08043348259289664
-0.045028727849455
-0.1035314388012175
-0.09944668678371113
-0.08417999971067898
-0.09648233090011249
-0.09174065326842701
-0.06851394823602336
-0.05955272672009693
-0.07826793474120373
-0.07111687107445848
-0.08346064736558469
-0.08148053799849767
-0.08593945314104259
-0.07529432476408605
-0.07386151881770835
-0.09479560841243326
-0.09249418773780509
-0.09422723298523288
-0.07873274094116028
-0.07087454307039799
-0.06262525818989377
-0.07971041404835985
-0.1558763435177505
-0.09862815652283166
-0.1034642598711043
-0.1371432066190702
-0.09340444389372964
-0.1237051905080939
-0.1547598730571324
-0.1475099000793668
-0.1031853107895752
-0.0899355829608217
-0.1427954645444162
-0.08242713080946498
-0.08655009575466249
-0.1004519237894037
-0.1043413805220075
-0.0889037475920436
-0.09707912135657082
-0.0792139995834882
-0.09545250939811478
-0.1009382355788339
-0.09043551256606563
-0.1046583049420353
-0.1152294857756933
-0.066319377450621
-0.07029075727937817
-0.0977800388503241
-0.07356188804450219
-0.1316253519497405
-0.08774104444135063
-0.08955419244995097
-0.1247027748875754
-0.06296088398748591
-0.06183503151546291
-0.06230092591356121
-0.06249045798501227
-0.07205377754088862
-0.08168908293813765
-0.08300794472826482
-0.07128748353072763
-0.1633039534028198
-0.1525818450210159
-0.1706291965240352
-0.06328477097285184
-0.0642435039733496
-0.06489407781423819
-0.06262704820964599
-0.06984056785382538
-0.06511792920280915
-0.06577059557958739
-0.06913318903126868
-0.08196480974850605
-0.07787097280388088
-0.07942886601086203
-0.08590428772395668
-0.06095375073130256
-0.06088549855289881
-0.06099357692948731
-0.06088827508316673
-0.07230378953743696
-0.07587288072446886
-0.07533967256334982
-0.07138902787063077
-0.1940163163916345
-0.1904917694116781
-0.0623156920470378
-0.06288456948761541
-0.06256327708238553
-0.0621183088501925
-0.06387329333922513
-0.06320701567177235
-0.06314288231877956
-0.06438648581678308
-0.09283398578407262
-0.1066618299192803
-0.0980171968869904
-0.0897527281367602
-0.0611255722452009
-0.06131160705526375
-0.06121083066122698
-0.06104994669549841
-0.06891829840886511
-0.06743026467676466
-0.06802928212418589
-0.07020323111910458
-0.1625423089381627
-0.1155271972904009
-0.1120589651065187
-0.1601011583780026
-0.4015930567308513
-0.3573002584012044
-0.06172054784893067
-0.06143442427904316
-0.06142508083588478
-0.06191221222148081
-0.06529027170605221
-0.06667604226409118
-0.06649998490525104
-0.06487934114939978
-0.1977953167701545
-0.177623375233743
-0.1356502275717215
-0.104132207600584
-0.1167870607569475
-0.1402924707070267
-0.1422596947220905
-0.1060599968400006
-0.1322340999232128
-0.1879224264780907
-0.1728297671825625
-0.1745588761018405
-0.1828894458744646
-0.06425809790435433
-0.06338944249707903
-0.06694141927991236
-0.06682501723350645
-0.06744069222506233
-0.0638269787094196
-0.06382702957406927
-0.06512878623540692
-0.07083160417515809
-0.0681963868508967
-0.06612921330907973
-0.06870937341849241
-0.06660665937542133
-0.06466933574952034
-0.0787872013995479
-0.08771312362596237
-0.09892290923715175
-0.08618061559582292
-0.08883956308724751
-0.0870393162845662
-0.07803805803199441
-0.07273260572272475
-0.07415472692208497
-0.06846641131577112
-0.07856272209395078
-0.06897487632562919
-0.0792512406482079
-0.07215153294472956
-0.08792094737461316
-0.08147628212875521
-0.08799300338447547
-0.09562677204865763
-0.08165378801453048
-0.09600888008356866
-0.08765783828193341
-0.09711393329537323
-0.1256556195223235
-0.1106225672110795
-0.1072528047453491
-0.111323233852507
-0.1078376175729902
-0.09669637208541511
-0.06134432475193181
-0.06118403426389896
-0.06193020410728511
-0.06193362441139061
-0.06202770187561302
-0.06124676615029755
-0.0612667910801097
-0.06146742859298001
-0.06240214157990893
-0.06207498192676193
-0.06155160709348929
-0.06217605567611141
-0.06165622158706565
-0.06136373225853491
-0.07363964850244609
-0.07692064811326385
-0.08187413188397963
-0.07737493137769136
-0.07705433499575091
-0.07751797844286734
-0.07352931898052434
-0.07096524845219745
-0.07139586474231818
-0.06879765967646778
-0.07386745825209515
-0.06889201410331448
-0.0739891696700246
-0.07086581410239635
-0.2160084063891727
-0.2537963525806142
-0.2520233682710065
-0.2579623470014115
-0.2605794304352554
-0.2487998473205246
-0.1759491635267594
-0.1540099333406599
-0.1337895536834497
-0.1958388604308166
-0.1349440150296648
-0.1978985035401178
-0.1741008831824922
-0.3516659736134701
-0.2952023433048931
-0.3091034336139835
-0.3272049292779856
-0.06270803992978556
-0.06316235867571401
-0.06434181599503758
-0.06358383050807752
-0.06368289876533036
-0.06326101552628573
-0.06260751208280636
-0.06226370755977634
-0.06272758700135947
-0.06181699632428503
-0.06303331634964597
-0.06192066997186729
-0.06313324143829613
-0.0621614382824165
-0.06481848809984812
-0.06386378281346074
-0.06521547693846905
-0.0661516239021135
-0.06396040210067505
-0.06624935011101271
-0.06472363520528973
-0.06589719756410341
-0.06923541076836322
-0.06712656124635319
-0.06751723293585168
-0.06721964189832431
-0.06761586980935307
-0.06580382115887716
-0.0793700339337486
-0.07715372595936734
-0.07788726738976504
-0.08016234522086865
-0.07717962167712923
-0.08018099222179116
-0.07934093072355926
-0.0818977155012508
-0.08593007129586867
-0.08479868409373391
-0.08284174690223023
-0.08483724917917368
-0.08286280969093085
-0.08186446592540154
-0.0608646680316089
-0.06080797735142002
-0.06092000882577852
-0.06090966396317285
-0.06094368789113198
-0.06083842910609651
-0.06083432016495598
-0.06090032631878286
-0.06101726552821447
-0.06095611765696964
-0.06091429334128587
-0.06097953523358335
-0.06094020018236639
-0.06087441762294724
-0.07368678828367879
-0.07526722562489378
-0.07588854225142386
-0.07421776327215962
-0.07529106708489482
-0.07423257283663878
-0.0736641036402234
-0.07225923642526295
-0.07140369384907634
-0.07096149526622776
-0.07271745453878325
-0.07098254840544849
-0.07273229611825255
-0.0722374723210074
-0.217756879628515
-0.1906330799160387
-0.1742867259137462
-0.242241397375514
-0.174334129950133
-0.2426529488853966
-0.2179626901838698
-0.06251263830588023
-0.06275892129569798
-0.06290622464108224
-0.06261009677407048
-0.06278313874151835
-0.06263221674461469
-0.06248798120318142
-0.062264438708008
-0.06214111107506518
-0.06201153084395855
-0.06235366532050318
-0.06203667656917358
-0.0623761979261162
-0.06223947857467046
-0.06344417150810869
-0.0630700348707154
-0.06322815737330834
-0.06356875359423991
-0.06309390902540749
-0.06358952377071496
-0.06342053945016451
-0.06382546993880282
-0.06440616422810637
-0.06421793894748265
-0.06396365828599103
-0.06424072168875371
-0.06398388685350809
-0.06380219278371031
-0.09786874476887658
-0.103932480908665
-0.1067289526350266
-0.09998594393215077
-0.1000358040875179
-0.1040303914202613
-0.09779372367613655
-0.09271937904140555
-0.08978336927483317
-0.08837507188809444
-0.09433244291833542
-0.08842162561910266
-0.09437244359464948
-0.09266091842604696
-0.06115657034726046
-0.06122659855724849
-0.06133575757748123
-0.06121524952963552
-0.06123955627906347
-0.06125281087513209
-0.06113018457178958
-0.06107129990654253
-0.06107399528488389
-0.06097032956561533
-0.06112761730252859
-0.06099646064527485
-0.06115192108427618
-0.06104493475658435
-0.06798607571839044
-0.06715635016518605
-0.0674468646885452
-0.06826852626186959
-0.06828473944742279
-0.06717744448386169
-0.06796503866608085
-0.06887523253253661
-0.07021848225389067
-0.06983407091117025
-0.06919754548614451
-0.0698548860999553
-0.06921312391912443
-0.06885428231401404
-0.1212963190220325
-0.1116490085582466
-0.1156086880474382
-0.1263365820824183
-0.1117783324616532
-0.1264416110830605
-0.1211300225432115
-0.1334229925233695
-0.1602211703705342
-0.149375071864609
-0.140931813275867
-0.1495401803397922
-0.1410416714050323
-0.1332324845412041
-0.0615126494382958
-0.06134551910830269
-0.06145837630211725
-0.06158061533018627
-0.06137159105139824
-0.06160442327922266
-0.06148666472362055
-0.06166763091537192
-0.06193538381566748
-0.06181220087016124
-0.06174048245454034
-0.06183761657279167
-0.06176401093364604
-0.0616418630514997
-0.06582370462964993
-0.06643474103390512
-0.06669339902904323
-0.06602966484144565
-0.06645611298466013
-0.06604759189986564
-0.06580186906716017
-0.06524472181346506
-0.06489836349798486
-0.06469183936889947
-0.0654278004341777
-0.06471424913890769
-0.06544638032827127
-0.06522255052180115
-0.09815393155373282
-0.1165957856851174
-0.1114691229243813
-0.127799577738497
-0.09997473463753896
-0.1131318166734873
-0.109215668546036
-0.08403945467778043
-0.07931843861241156
-0.07879551875352557
-0.08482180183705824
-0.09148370323499365
-0.1050346299234659
-0.09281393883334761
-0.1024274691777617
-0.08856534492050396
-0.09833812505368678
-0.08276552766647875
-0.08862411090382789
-0.08208650901056967
-0.08962014778403565
-0.09691852083440357
-0.06168594383420155
-0.06220912980122733
-0.0626206273499355
-0.06273765933065348
-0.06239605539679553
-0.06187442845764229
-0.06202238447807391
-0.06125043674264834
-0.06152156134826373
-0.06158872777133857
-0.06118054523246377
-0.06136610497394699
-0.06187227157922483
-0.06153685691584944
-0.06170364031097812
-0.06155854570424802
-0.06257844677527621
-0.06214897774261487
-0.06182028143382875
-0.06223972229460079
-0.06189444595603466
-0.06148143389662534
-0.07119700418230182
-0.06943360158451314
-0.07473018993778303
-0.07166183769175095
-0.07154776661770662
-0.06910723506548708
-0.07428914819825796
-0.0720017660186232
-0.07532581354058644
-0.07492499475705543
-0.07234183428213582
-0.06971615035429939
-0.06821534022043223
-0.07002919293681203
-0.06791424713155748
-0.07390255336807702
-0.07840713801155492
-0.07787106363372619
-0.0823335747804055
-0.0773770799498357
-0.07430165213066352
-0.0778815359943915
-0.1801179929147745
-0.1451029242041517
-0.212541447562165
-0.1572396254030498
-0.1380511184399333
-0.1959656926347942
-0.202524097059049
-0.1496680426434701
-0.1253723102188107
-0.1195655248008093
-0.1635893361408834
-0.2357047123875645
-0.1548723520738073
-0.179590394000275
-0.2247913372202844
-0.2382731757006944
-0.1647867642886884
-0.2173983525481011
-0.2082864570186923
-0.1339069798767623
-0.1413255307432839
-0.1901800090196153
-0.06247777466232969
-0.06246838206026929
-0.06368789803422405
-0.06294633953830714
-0.06213700531440509
-0.06280506191597465
-0.063351688455873
-0.06247515850759056
-0.06328553021443971
-0.06279649111634213
-0.06296989804393285
-0.06208025745546968
-0.06210398359411502
-0.06177236713160664
-0.06240713047358998
-0.062919485952978
-0.06423638627208281
-0.06378829025800718
-0.0645604437132818
-0.06324234177391427
-0.0639015897286818
-0.06346989212510599
-0.06610195297832135
-0.06774253327970796
-0.0681938425977599
-0.06947789628833526
-0.06742737236072803
-0.06641326293764017
-0.06784690069233008
-0.06435188204243494
-0.06389825678204282
-0.06358860353716522
-0.06465635582627907
-0.06529876246338792
-0.06676246453497367
-0.06646380764625337
-0.06559884082538954
-0.0650234104147055
-0.06681059073833646
-0.06448121943441736
-0.06543586255332934
-0.06416679280583364
-0.0653350929869239
-0.06647257490551314
-0.1299638613433801
-0.1241867925961782
-0.07373867284479391
-0.07013083158580578
-0.07734097506074133
-0.0915623484811169
-0.2447820225822445
-0.1280694502709439
-0.08013602376500231
-0.1008701823168327
-0.2882148167560922
-0.2760237230709568
-0.2081787079756969
-0.2009495400595009
-0.1103204812260268
-0.08558072182801661
-0.07627737205163951
-0.0724611701851044
-0.2234136774176616
-0.09990862251384569
-0.1664994872795633
-0.1175850179046308
-0.5629841076752886
-0.4979130324697191
-0.5679721079086436
-0.5962189275493738
-0.3921203379822557
-0.1589240297452013
-0.4357605783827648
-0.4565450754544669
-0.5817327894939143
-0.3353570876144626
-0.5364093382889437
-0.4756105562469122
-0.529490813436114
-0.3131812479281926
-0.2268754237263288
-0.1807860166457119
-0.1786933702393072
-0.2181859445740277
-0.1799591905466373
-0.2079527170390939
-0.2744750604391122
-0.1949057977018774
-0.1891483521790888
-0.3705635542862535
-0.2962458031818485
-0.376402870925973
-0.207877936037441
-0.3795384477905241
-0.3360184331346553
-0.308952648004823
-0.2528197148632322
-0.3047757060473631
-0.4032212064268454
-0.2803402321426453
-0.4298816880570244
-0.3328566752119664
-0.3321859879177078
-0.4197188415925904
-0.4471498770981298
-0.1763530454768539
-0.2144513106902437
-0.3391850878518095
-0.4187783350541027
-0.298268382457214
-0.3236614676961115
-0.3723138792049369
-0.396310602615347
-0.3316317156725598
-0.4148214138565862
-0.3232264362704816
-0.5645174595574181
-0.635779172664973
-0.5732789197414929
-0.5583474933866119
-0.5789575581489549
-0.5597302440982252
-0.5883625554428094
-0.5997618845798336
-0.531965651099282
-0.5998659578613024
-0.5956732612815735
-0.7107361450972461
-0.5689720785842202
-0.536905241603965
-0.5211687930545392
-0.5269888036964997
-0.5355804047427561
-0.5055723580449011
-0.4321634477023127
-0.6665605713095658
-0.5215139964559226
-0.4350130329087942
-0.4916977195460264
-0.5257188768271577
-0.5301098565676422
-0.5419886916756671
-0.5309601015712709
-0.09469553549560379
-0.08445656550410477
-0.09176637378011307
-0.08643396807175074
-0.1803230195549198
-0.1559337057978801
-0.1373044580721851
-0.1240885970917888
-0.1616247993713675
-0.1636540267348896
-0.13643026971909
-0.1365053384331167
-0.09675838366293117
-0.1484523814078954
-0.09090426634548007
-0.06343274492471164
-0.0652573588991959
-0.0656888461193003
-0.06297007435096595
-0.0637552408274991
-0.06759484518032899
-0.06470510821024944
-0.06600174789082651
-0.07263491347660436
-0.08841457607458816
-0.08399384606547095
-0.07534250752131628
-0.07036928314476913
-0.06849863047865787
-0.07285796437727646
-0.06624541179329968
-0.09833218895777476
-0.1159812691381288
-0.1553484675214553
-0.1129756542817622
-0.1398067506997816
-0.09076548580974923
-0.10313084470891
-0.0767129654018988
-0.08256621528221726
-0.08187736016793271
-0.07612545769081287
-0.06958762196168226
-0.07409406584177378
-0.07928945602667122
-0.07405118796339913
-0.2393095691205025
-0.1613677229076336
-0.2782522784282501
-0.1491385091166098
-0.2595089504318858
-0.1889568458087987
-0.2657952449293503
-0.1905966481094406
-0.2819517773867223
-0.2516965735951251
-0.1762940250539555
-0.08935705571883903
-0.08392484888557014
-0.0983393862714376
-0.09864209070768026
-0.08963340873779842
-0.09062660777485645
-0.08036965248398285
-0.08400249966457225
-0.07763840108537594
-0.08019754152370456
-0.07505774204616393
-0.06633969771584287
-0.06676067675817905
-0.07113780493941727
-0.07075571681030823
-0.06866628290890352
-0.06707076638594889
-0.07305173329528084
-0.07143713978241843
-0.2301339613782747
-0.1992986455613195
-0.1741696462329654
-0.1618991509305255
-0.1928198929083635
-0.1411187114478714
-0.1559817313494961
-0.092986997238254
-0.1057513351402611
-0.0990853401291428
-0.08917302540881569
-0.1256074915299754
-0.1384116215745151
-0.1089656591752759
-0.1036104114786322
-0.1056437925783822
-0.09016865683936232
-0.1131804393511187
-0.104046951703722
-0.1195760468661943
-0.1005891595999691
-0.09327794650564748
-0.2154609650496312
-0.1337645901549072
-0.164140229663965
-0.1180876561862135
-0.1814761813625168
-0.1501123833767775
-0.1670398225041872
-0.1272907515581169
-0.1336934194199078
-0.1434768339394814
-0.1182264204199926
-0.1403566771749201
-0.1040629016299146
-0.1242821170315837
-0.1131305484192729
-0.1096643457875353
-0.1280071755679287
-0.09770342895311926
-0.07930214858371037
-0.08322341820718368
-0.08758065523183897
-0.1506267545266066
-0.1460528789603789
-0.119851806504726
-0.1433400696141114
-0.1101197449782744
-0.1157878138378798
-0.1519957624435428
-0.07146888478133732
-0.07195827799335006
-0.06977987019355543
-0.06611642926582517
-0.06762122828195859
-0.06924309284737215
-0.06769332863507876
-0.06949910716279681
-0.0684853643278009
-0.06786730171739819
-0.06523556581378812
-0.06481151514517
-0.06637651945403289
-0.06679886973944842
-0.08293588617895251
-0.07538871463697391
-0.08068003394214966
-0.07005627267686268
-0.07397011266407102
-0.0717914304296644
-0.07596108372196421
-0.1047280548030171
-0.1012313550511478
-0.08880515536892698
-0.09120141859701919
-0.08037474018902736
-0.09483683726981776
-0.08290968695460101
-0.08396558052038004
-0.09061729034380137
-0.08617167799838925
-0.07430523256455246
-0.07887992977277031
-0.08304197849428843
-0.0778226705796244
-0.09549836156143551
-0.1096265644855102
-0.1161694574715945
-0.1002743540652571
-0.1083138056752934
-0.08667506426010077
-0.0921389162023617
-0.07386810698587495
-0.07711545935028287
-0.07973401307560907
-0.07157342198398017
-0.06994815322075847
-0.07478671883383631
-0.07302893639537408
-0.07560167905905774
-0.07490194690982029
-0.07180382299191387
-0.06860210351030915
-0.06902825885650588
-0.07205847068585655
-0.07161872917962656
-0.1422502180211921
-0.1145362831014774
-0.1212949216918184
-0.1024546140740593
-0.1263790557435833
-0.1052089566767058
-0.117999442959139
-0.08792197138340127
-0.1087017615650691
-0.0971897998567494
-0.09469908587883788
-0.09441483553759242
-0.1052743476837559
-0.08623565726445617
-0.1321248859303918
-0.1567574956506749
-0.139817023232427
-0.1271492909000485
-0.1125052499126896
-0.1083528699029069
-0.1219786977298342
-0.1002964934749691
-0.09107747878595003
-0.08372992479042875
-0.09274712325544988
-0.09244415131836803
-0.1025529198701656
-0.084867759248382
-0.0632114006818365
-0.06267241402314459
-0.06248875502240963
-0.06308850046771323
-0.06403716603710706
-0.06326749058905703
-0.06381919492774032
-0.06371223687413946
-0.0645482024540709
-0.06533115072034577
-0.0643462286308765
-0.06442304813486389
-0.06460779303581118
-0.06364894688243458
-0.06382951894627639
-0.06478960039549946
-0.06488507543558665
-0.06547955638689126
-0.06400260195664448
-0.06457512366307633
-0.06471948870240694
-0.06305358700352952
-0.06236304787013802
-0.06229265674891305
-0.06296658677571966
-0.06358459721695105
-0.06366426121002354
-0.06289984565129911
-0.06415647687693841
-0.06292762019875459
-0.06325946140127309
-0.06384264991535596
-0.06435680699547799
-0.06475444373545824
-0.0635172121570366
-0.06498168762975026
-0.06635361040311014
-0.06670831702938405
-0.06693704817863481
-0.06604956737949287
-0.0655095815105502
-0.06583540497778768
-0.06536327612705989
-0.06369188579253726
-0.06423313885997911
-0.06426870191368607
-0.06595864451565046
-0.0653014771572315
-0.06480376896776065
-0.06456319193722034
-0.06510690355708262
-0.0663911885526963
-0.06511923300116995
-0.06550169029072546
-0.0642455062496553
-0.06542686535447706
-0.07538357865566982
-0.07205895640769334
-0.06990697524131953
-0.07270370329832074
-0.07334292293501413
-0.0705087380203871
-0.0761734530173306
-0.08180063591094602
-0.07650835305324698
-0.08665211713566227
-0.0827650348957254
-0.08051504214861524
-0.08135514879973108
-0.07758210082337201
-0.0791945614614443
-0.07858441505792529
-0.07488495580840859
-0.075609372277203
-0.08514923591546578
-0.07945194937794152
-0.08012206696268799
-0.07350662489409023
-0.074275174239489
-0.07214902316707084
-0.07841034305760865
-0.07125879399549394
-0.07721384042458841
-0.07446170116460042
-0.0686961129934392
-0.06819504082399748
-0.06685677132253912
-0.06742447705675768
-0.07102437726598657
-0.06932193306851933
-0.06877310093406395
-0.0670393011870646
-0.06702751132812571
-0.06958114565461267
-0.06760494999197821
-0.06619034710559772
-0.06867456674957802
-0.06787313307623419
-0.06812960615105085
-0.07187429340774791
-0.07106579084450682
-0.07034654045464259
-0.07012900736968961
-0.06949221458151561
-0.06896835970824348
-0.0672933167145343
-0.06492285309961707
-0.06577540066090981
-0.06633971053628311
-0.06684484513575478
-0.06548915153772628
-0.06790045136368469
-0.08346504879282479
-0.09371778424786707
-0.08563744023400656
-0.08062230809011001
-0.08464274587854069
-0.07893734314088227
-0.08686264929717293
-0.09268384662548416
-0.09770665112140997
-0.09358413779813723
-0.08571128682116486
-0.0886023287587198
-0.08282803784110404
-0.08984391301937288
-0.07706047079350177
-0.07323143634620004
-0.07996436317512057
-0.07826787569329417
-0.07564057030936785
-0.07450921056930936
-0.08176795779704821
-0.08693005153176057
-0.07796146186122915
-0.08107366041199918
-0.07884698853014983
-0.08026353144294526
-0.07607375634414293
-0.084116220925271
-0.07785147750896458
-0.07939469616670167
-0.07611853689872959
-0.07744052340889435
-0.07397190463998676
-0.07485845230870797
-0.0700231223247274
-0.06802258760088606
-0.07069347913166554
-0.07083507855581282
-0.06886642495115808
-0.07196477387147597
-0.06918146732143632
-0.07114064854973297
-0.07223144665754254
-0.07137439766428956
-0.07550066938174599
-0.06997151258284094
-0.0735546815269893
-0.07257720991032046
-0.07573518571002372
-0.0725300601354406
-0.07726324734384563
-0.07705593346275366
-0.07519250311103247
-0.0740230604185305
-0.07415547200406805
-0.07138704036736022
-0.07233854410451275
-0.07527550705475841
-0.07211710523888512
-0.07351122468026074
-0.07297288981740811
-0.07054141538893149
-0.07331302892175467
-0.07434624511117373
-0.07285058099443056
-0.07250871704170089
-0.06690593703420158
-0.06561215721601625
-0.06641073141416864
-0.06759916948342143
-0.06566775131190657
-0.06766681367520058
-0.0668549173584464
-0.06700391831361917
-0.06593011243778145
-0.06655595071129874
-0.06800599366503196
-0.06577312681231494
-0.06715059718417457
-0.06780777155151886
-0.06843463828035488
-0.06946328396203857
-0.07020963609586321
-0.07095086581435597
-0.07008677869635761
-0.06857016130580249
-0.06926984738837673
-0.06834465096191925
-0.06906720330751744
-0.07081691473304728
-0.06996497296141459
-0.07000568865354405
-0.06913189718228915
-0.06829853681529245
-0.0680281928556013
-0.06735531676596243
-0.06800489147503976
-0.06989989876894413
-0.06684769634186392
-0.06852267009228538
-0.06923749388723881
-0.06764459500769625
-0.06745666619991947
-0.06615418899032974
-0.06831084435424323
-0.06645033145174252
-0.06869034950497122
-0.0673625000750263
-0.06940582882423045
-0.07137078541898206
-0.07146710026456353
-0.07236918297402213
-0.06988792311539108
-0.07069835811432859
-0.07099791881572923
-0.06903616078658921
-0.06976653980763198
-0.07180983677033263
-0.07039352895851002
-0.07014372539499417
-0.07064374305357204
-0.06876896585543253
-0.1915096825186528
-0.1469792231750113
-0.1157259131506078
-0.1742272119992601
-0.1687308077770633
-0.07304417409005352
-0.5497194816118818
-0.6408196158835071
-0.3659617227178835
-0.5338774543522974
-0.3549779031413187
-0.6569379695660428
-0.485703219335955
-0.5494202075735025
-0.5032490940452728
-0.5651588382547745
-0.5539918208964384
-0.4561938172184805
-0.5479157499580145
-0.513333796856667
0.05693513605856762
0.1460099092620414
0.006966981864258709
0.0659976740502404
0.08334199514300647
0.16639963015788
0.02930041785096173
0.03553878609587235
0.1201554156359688
0.09381270295469199
0.0146423390423894
0.08920292718075301
0.1060380660345063
0.1421676425734571
0.1177211343686051
-0.08299966645676801
-0.08981063869886899
-0.08830204174074568
-0.08185892218602658
-0.06339452457167673
-0.06423109275788644
-0.06428348166018798
-0.063338049312015
-0.06450248327836705
-0.06578506637223565
-0.06496388573267775
-0.06533839093340854
-0.07834776302530051
-0.07416112144622715
-0.07738960801786859
-0.07502446085984078
-0.0662857849804015
-0.06635736713168829
-0.06555038439515561
-0.06708005907694807
-0.07954587855514952
-0.08108206863134851
-0.0773887130791638
-0.07608274968837955
-0.06911220394639464
-0.06731035222678032
-0.0680181995674754
-0.06842168935519008
-0.06656343542303518
-0.06528688130161243
-0.06533467371641212
-0.06652090318426855
-0.06747896265303105
-0.0667550085767793
-0.06632603539767609
-0.0678866255605159
-0.08005774832525102
-0.08590410644332436
-0.08706510086672571
-0.0809037969028627
-0.1197890013010101
-0.115124547555244
-0.1005976529779266
-0.09825668036809128
-0.1086126661018052
-0.09463461952320198
-0.1119518996523176
-0.09645145932313548
-0.06199084461460208
-0.06205459843343016
-0.06265460138864683
-0.06259441902544589
-0.06349703117247639
-0.06452304661355923
-0.06364945267999424
-0.0643794741406722
-0.06233169165079818
-0.06216675051012067
-0.06276248942471223
-0.06292199025663991
-0.06372014857098329
-0.06323809624036102
-0.06380488551108164
-0.06427781395170534
-0.06413964689853567
-0.06472341128378192
-0.06386072454942579
-0.06498954757358379
-0.06255840004502343
-0.06285546236188903
-0.06343099895015446
-0.06314193867818908
-0.07589726123042895
-0.07282967462738947
-0.07343441844354734
-0.07658371696301562
-0.07172269720624055
-0.07064045799657886
-0.06985040072919586
-0.0725359670665042
-0.06864221067929908
-0.07047534030804088
-0.07103822299516052
-0.0691857033957501
-0.06721380960129279
-0.06915825867198688
-0.06837581934988426
-0.06799921663501921
-0.06432624905741161
-0.06507873719454994
-0.0656202888031459
-0.06487527861569833
-0.06718193061227347
-0.06601786723788007
-0.06655467848558129
-0.06771822626458597
-0.08577795436813129
-0.0811567438694871
-0.08310719199882974
-0.07904619013358422
-0.07469561734762584
-0.07158313286854878
-0.07351688967735256
-0.0726972967159963
-0.07564450569965782
-0.07792863207351787
-0.07614373133098702
-0.07403506736384215
-0.07296695759918105
-0.07362059665817772
-0.07582306852696107
-0.07454137683587686
-0.07001213643765576
-0.07008610695259455
-0.06892789922236667
-0.07117344067856957
-0.07038970241516181
-0.07121684614643406
-0.07187554215158991
-0.06971614853275046
-0.07398223519114117
-0.07128427395885278
-0.07246015222604911
-0.07277291083855195
-0.07249530083782932
-0.07216371150104592
-0.07176801656876758
-0.0719285892363232
-0.06664286354682671
-0.06555604621302917
-0.06542302812288725
-0.06676336819215624
-0.06799013994727647
-0.06960822784383705
-0.06963838604896967
-0.06795348252558192
-0.06805945928867879
-0.06978633837063199
-0.06969636081974445
-0.0681656800445765
-0.06716725055159622
-0.06574330105933164
-0.0659940507695547
-0.06693497520970729
-0.06881910221626233
-0.07072638655117061
-0.06920292676134115
-0.07036890846431713
-0.06853044992640933
-0.06991946858280905
-0.07010634853035118
-0.06831933821176533
0.0936573238173096
0.1751955604786135
0.1150146027644791
0.12842138348191
0.1517843233792219
-0.2347770025869563
-0.2565714289948359
-0.2205669917257936
-0.26518605969427
-0.3340287279029399
-0.219026504306536
-0.3120861536993496
-0.2886783761250261
-0.3989572438417318
-0.2661872592102298
-0.1254265810060987
-0.1655154600356684
-0.1073187992799934
-0.1625295126276365
-0.1419947713219427
-0.1263938155694815
-0.174651896216299
-0.09464279520393026
-0.08765902473899241
-0.1200393570086204
-0.1065209946049515
-0.09504939192399885
-0.105628770988934
-0.08802521288451202
-0.08951826785672119
-0.09590146838745643
-0.08352525141564782
-0.08312843820232364
-0.08013968078258449
-0.08503848917634729
-0.0804841490862597
-0.0784804846882558
-0.08213459873142599
-0.07708777091957347
-0.07995661108590194
-0.07614085723612797
-0.3971122429084624
-0.08870555168324662
-0.04159943930485216
-0.0006228950995511621
0.01183901691181841
0.04675354023947952
0.03961161290221607
0.04905711663326764
-0.0756747412059124
-0.07500932356024949
-0.07806636487519433
-0.07665130349140455
-0.07454857267217682
-0.08910423208326844
-0.07973080370802731
-0.08140953045734911
-0.1841030474579276
-0.1457078300115177
-0.1655012323780862
-0.166315590458609
-0.2371050160064412
-0.1697724540665954
-0.4474489641850505
-0.3237316479099172
-0.510657481907725
-0.5333042452782343
-0.5542494655821203
-0.5494323049517499
-0.36982470438912
-0.45940388146867
-0.07308487531690734
-0.07270839178238768
-0.1243444278476422
-0.1193623958403227
-0.09988067928158982
-0.1079329926653814
-0.07338808370012465
-0.09657868319180027
-0.08900073034415987
-0.08274095907509853
-0.07896234370975762
-0.07609938485418738
-0.07562426758102686
-0.08433984788559434
-0.0791758351380898
-0.07717316934065489
-0.07210506193846165
-0.07290042140868562
-0.07199474394784788
-0.07276732686368424
-0.07188693560380353
-0.07192237200683309
-0.07376497865260299
-0.07227445098022062
-0.338048032489531
-0.6201769527879614
-0.6476571176436062
-0.6679897459327484
-0.5799380285840154
-0.6820451727387891
-0.485710937393339
-0.2925161702851443
0.06155367264063111
-0.0715157702546482
-0.07153910909595175
-0.07165733195909388
-0.07158497112413377
0.05648362138078591
0.07145801661174185
-0.07779855316320303
-0.07648615696192128
-0.07965051008806617
-0.07932202207902285
-0.08007630257624396
-0.07731877661356266
-0.07696422049917687
-0.08413322208429019
-0.08262291283984405
-0.08610080393371249
-0.08141623534039102
-0.07983920079655923
-0.08069496277310441
-0.08085587744983659
-0.04724004900683981
-0.05783855030480197
-0.06572446046282908
-0.0488905667935431
-0.06798174316125354
-0.04558426852057926
-0.05861874954500385
-0.1162745192541879
-0.105873142144319
-0.1035521277017613
-0.1102941842353782
-0.1056485468885881
-0.1105002155892644
-0.116360918734044
-0.096601607501444
-0.09481954548775878
-0.09963771118473169
-0.1030860573706004
-0.09511808125838563
-0.1034575995657483
-0.09614969022638419
-0.08113939563465626
-0.08080714707337934
-0.07793731089180157
-0.08436332565746921
-0.08143914369831325
-0.08738858002705918