/*--------------------------------*- C++ -*----------------------------------*\
  =========                 |
  \\      /  F ield         | OpenFOAM: The Open Source CFD Toolbox
   \\    /   O peration     | Website:  https://openfoam.org
    \\  /    A nd           | Version:  7
     \\/     M anipulation  |
\*---------------------------------------------------------------------------*/
FoamFile
{
    version     2.0;
    format      ascii;
    class       surfaceScalarField;
    location    "0";
    object      phi;
}
// * * * * * * * * * * * * * * * * * * * * * * * * * * * * * * * * * * * * * //

dimensions      [0 3 -1 0 0 0 0];

internalField   nonuniform List<scalar> 
37131
(
3.89939235500325e-05
-4.074906619974699e-05
-0.007947679840495618
-2.236544876785744e-08
-0.007888473033550163
1.876320994482964e-07
3.692412188647684e-05
0.02914992605262594
-0.02909542103244858
5.465739235682375e-05
-0.0004336121106891407
-3.720355729458179e-05
0.0003616532554512401
0.007882693651907396
0.0006798801905139678
-0.007840062060499078
7.509571403109152e-06
-0.0007300213533253746
0.0005827300523716943
0.007909686218107028
4.721537475117786e-06
-0.0006144441560742593
-0.00026235455375641
0.008193707941004394
3.368246169760483e-05
0.0002879192517734208
-0.008215627594214701
-3.73275065028391e-05
0.007792640295968592
-0.007748675933612367
9.7314366006927e-06
0.0006261843915243807
0.007706963015698568
-0.0007103209818788432
-0.007649927539387692
-0.0001026654925419672
0.0006290123946061776
0.0001269386035040735
-0.0004470997145003106
0.007507055564388175
0.0004014681143771349
-7.800234798303933e-05
-0.007473172663553363
8.975104726916402e-05
0.007433590121959717
0.000327979583000832
8.179624542848618e-06
-0.007416353681883271
-0.0003533956476204465
-0.008189769201706066
-0.0002224043571080879
-2.802940886100882e-05
0.008166045104895546
2.140442617838366e-05
0.0002527534366000802
-0.0001029616360612269
0.008117209332759716
3.032218456250107e-06
0.0001110257114771861
-0.008122211672693228
-6.093953935948568e-06
-0.007939031304484071
0.0002524863845147088
0.007942151424515376
1.355585568185553e-07
-0.000255742063101928
3.510212043126851e-07
3.970649846876358e-05
-1.021727007380319e-07
-0.007953478942604644
-4.13389556962451e-05
-0.007942443917271721
3.579917720737143e-06
0.0002619308218028949
-0.0002687032252738665
-1.579422801100073e-06
0.007947215825822477
-0.008161275204353261
-0.0002059448622384154
-1.435588412524218e-05
0.008137594899768027
7.172965233614387e-06
0.0002368080857142645
-0.0001029512215144905
-0.008149430169780293
0.008141316064218758
9.116592553990916e-06
0.0001139300830333253
-1.198134851054272e-05
0.00782418888477892
7.136760047544433e-06
0.0005440447034749111
-0.0002916435473642205
-2.708127262766247e-05
0.007855894297210649
0.0002664016770427635
-0.00784028033471789
3.67091804547331e-05
-0.0006293680089419456
-8.229008504028925e-05
0.007753770478777865
0.0005609484889263183
0.0001039021419607617
0.00760251079060261
-0.0002514279081550337
-0.007584820361064382
0.0002269171241556391
-3.901812479868641e-05
4.583847926018437e-05
2.079174871281239e-05
-2.269133272396945e-05
-0.007528707510208125
5.337327206102491e-07
0.0002760880477084091
7.22205484953067e-06
-0.0003139617255157231
0.00746424174492214
-0.0001977218066297591
0.0001784354505592901
0.007616429820606405
-3.00183395335416e-05
3.538566558216912e-05
0.008061829183211397
-4.459405048203519e-05
0.001458800843856723
7.993302524513936e-05
-0.001734975745658702
-0.007820993256172502
0.0009582885829728787
0.007692622634021552
2.09495239933832e-05
-0.001085121806603698
-0.007586738934382944
3.923620358477751e-05
0.007867502362961203
0.0006948473051946793
-2.619923651127899e-05
-0.007817577904693679
-0.0007578087305380455
-0.008259097031498583
-0.001025793350456748
0.008296253999175062
8.57588574906847e-06
0.0009952382880427273
-1.51777910102192e-05
9.404490438813886e-05
0.0009527571955921967
-0.001086523773026895
-6.712041367158553e-05
0.007658396973274416
-0.007551554886552435
-0.000870176146920255
-0.008283547679145634
3.022261418922412e-05
0.0008609780018161796
-3.290602936972899e-05
0.008295429239429566
-0.001331983946324742
-1.080989476191057e-06
-0.008141454061746952
1.986896875367287e-06
0.001213435069137773
0.008078860198079039
-0.001577740040716716
-0.007885871719681463
-6.043632172812357e-05
0.00133056836772853
0.0001146195163187752
0.00785373168218048
5.591768192248722e-05
-0.007799554498400393
-0.0007731537730216292
0.0007022951108774359
-0.001081635980914144
0.007635126368348186
0.00012408681786902
0.0009455709409575258
-0.007529103241902846
-0.001310171364014248
0.008201676114617279
-6.733520932281675e-06
0.00115268789465629
4.140107371951374e-05
-0.0002959526458159988
-0.00821854900911285
2.715934660038172e-05
0.0003329364654044417
-3.536335883263469e-05
0.0003260145176581345
-0.007934273225612104
5.70249833312927e-07
-0.0003313428463889571
2.670495099396063e-05
0.000599325688774373
-1.725293604254813e-05
0.007901053005479454
-0.0006423283462722858
-0.0005966091028271542
-0.008288121779890016
0.008259737196315738
1.272192012644617e-05
0.0006371297279804157
-2.485796170545709e-05
6.307887537224881e-06
0.0003382238223463461
-0.0003487590820827444
-3.270152724299191e-06
-0.007934946392374504
-0.0005078285409904318
0.008249692767969339
-0.008278422539340149
3.52824641731361e-05
0.0005457855734177287
-4.450972522864692e-05
-0.0002705383979400619
-1.827741642993236e-05
-0.008191127857720446
9.148716761660537e-06
0.0003095197509233354
-0.008261801403645993
-0.0004684622636049554
0.008239981371912607
4.826950836700728e-05
0.0004928170726728039
-5.080428570026954e-05
3.943088463552563e-05
0.007891435548623491
-0.0006590049963458184
0.0006085751962149285
0.007941261233589802
-0.0003605077661429863
-0.007931715204938605
1.120375769623548e-05
0.0003460658673142521
-0.0006155442087398122
-0.008272812570655692
5.020640586912008e-05
0.0006257438953586921
-4.939492552049205e-05
0.008454911414457677
-0.0006695837780732605
-2.443900728156396e-05
-0.008524947500321791
0.0007640588712189443
-7.459413027485828e-05
-0.008143964605535594
-1.247648506860665e-06
5.232403816413798e-05
-0.00821154724593931
-1.014258023346773e-05
0.008175246428964379
-0.0001570142089144498
0.0002034576061247893
-0.0004873390559392361
-2.26365162701789e-05
0.008380909431844948
0.000583977554792905
-1.331287166940042e-05
-0.0002066691139403246
-0.008257804720594834
0.0002662394602162666
-0.002355949345314892
0.0002022664393747254
-0.0001583134839941973
0.002319294756907719
2.699961865908519e-05
-3.429798563243925e-05
0.002180267158427516
0.0001155923654544668
-7.524150825671451e-05
-5.876429577701244e-06
-0.00221474158604738
0.002207304168944352
0.0001176056913921845
-0.002241348477673657
-7.753639095194253e-05
1.879311725247517e-05
-2.481810896497512e-05
-0.002319366332081045
0.0001856909662230054
-8.635434655905721e-06
-0.0001449916831710885
0.002287302483684479
-0.002072276570932687
1.262241348837115e-05
-9.701868068110148e-06
2.590273365727139e-06
0.002070187965317089
-3.422213170661635e-06
2.633616755136402e-05
-1.571058898551971e-05
-0.002039466165456875
-2.112665026411501e-08
0.002028861713542761
-0.002049769855199939
1.123547465208474e-05
-8.103062550902431e-07
0.002049535962799077
-1.019127599533364e-05
1.158598213635374e-05
-0.002062132466722478
3.623024040211124e-07
-6.415356068267424e-06
-4.644856785955741e-07
0.00205706402392926
0.002134436480849019
5.915333277724407e-05
-3.793173854024456e-05
-0.002151736728208382
1.163205569684393e-05
-1.555340257439344e-05
8.01167947749174e-05
-5.961366768296208e-05
-5.275351755571345e-06
0.002165039383077624
8.548955065155203e-05
0.002188695482145908
-6.164554901472828e-05
1.681408735099749e-05
-2.204940220829893e-05
0.002110842046564186
6.027943190330988e-05
-3.631165987503351e-06
-3.774201450062451e-05
-0.002129748297979252
-3.709763774527091e-05
0.0003100861941101148
-0.0002279026774448363
-0.002430657366659951
2.962214240415933e-05
0.0002870585281885806
-9.570509640453362e-06
-0.000202843964739612
-0.002394010385904747
0.0003359398902945985
-0.0002469644999185903
-5.146269457798066e-05
-0.002439695974626276
0.002365085641066136
1.998696611026128e-05
-1.155768034291504e-05
-0.00207955072778207
3.33963978445362e-06
-4.494768723128269e-06
-0.002072878937318291
2.034679770003653e-05
-1.629028011759448e-05
-1.873604134281055e-06
0.002070696023871078
-0.002095205427128568
2.311738133475383e-05
0.002090696062630164
-1.66663052201704e-05
5.958447189841756e-06
-7.900158805282159e-06
2.31034036817701e-05
-1.03869021553979e-06
-1.227728417409034e-05
-0.002059557284507792
4.409324937449874e-05
-3.130011761005969e-05
0.002124988378877049
1.033621931599668e-05
-1.36812491270947e-05
3.494195846178165e-05
-2.070262905275461e-05
-2.149034405977631e-06
-0.002084969232337851
3.289658941149967e-05
-0.002105308225804108
-2.044291996602635e-05
6.878647381490681e-06
-9.229518171565825e-06
4.065820190700062e-05
-3.243496146434754e-06
-3.059080647378323e-05
0.002104018147264582
0.0004968402057853588
1.80636069270568e-06
-0.0005010287578499738
-3.015951396179585e-06
5.398142767928256e-06
0.0005511195994346252
9.994260499566294e-06
-4.329824822644322e-06
-8.433191425224166e-07
-0.000555940715968611
1.678372859013682e-06
0.0004930623081829927
-2.09140168997977e-06
4.190926428587555e-06
-0.0005687546596006461
1.060147442545666e-05
-1.082030278193517e-06
-5.534286803718748e-06
0.0005647695022569907
6.436850613176855e-08
0.0004556968161490999
-0.0004562350290101991
-4.223464845151602e-07
8.961908393037346e-07
3.662781228590641e-06
-8.605894453341331e-07
-0.0005121108961772194
4.590125739822479e-09
0.0005093041142677977
-0.0005134650469944056
-1.434706191526182e-07
-6.027970761265218e-08
0.0005139908056753113
-3.220083540594699e-07
8.040377170214681e-09
0.0004545004544271448
-3.378802677886278e-07
9.618055069208149e-07
-0.0004551324200429199
1.260247844058327e-06
-0.0004839095644347996
-1.492754064540269e-06
0.0004813703111457972
2.771759509811617e-06
6.754086604629376e-06
-3.625364996443449e-06
-8.010949503763818e-07
0.0005487919727696841
1.449519766179981e-06
-0.0004896829960880431
0.0004866337530064143
-1.76507987211139e-06
3.3648031876091e-06
0.0005394221210117262
7.168664194354542e-06
-6.360787209176805e-07
-3.022751066461432e-06
-0.0005429319554188278
0.0006601714617553552
-1.46240968662092e-05
7.10842064982421e-05
-0.000692393841650128
-3.336456960780811e-05
9.126839871438804e-06
0.0006560685096378378
6.349907390210482e-05
-2.98008307890304e-06
-2.994584194651933e-05
-0.0006866416585144582
-0.0004611895120090676
4.124042495451933e-07
-2.689607010427421e-07
0.0004605017655702734
5.443028909592569e-07
-0.0005210911047232083
1.180223831624255e-06
-9.00661400735341e-07
-2.711856484469556e-07
0.0005210827279402052
4.388446127083677e-07
-0.0004618516556833907
-9.845601869260112e-07
1.207859240649218e-06
0.0005180004634467826
2.645658415155499e-06
-1.981606478431404e-07
-8.961393561118293e-07
-0.000519551821857605
5.954213146574834e-07
0.0004644122606000792
-0.0004653565593330824
-1.217443846835956e-06
1.566321265108556e-06
3.297953631656747e-06
-1.216971415290321e-06
-2.77742728438984e-07
-0.0005228943442188981
5.137150728151818e-07
0.0004626549826194483
-0.000463458567727367
-1.095566759381568e-06
1.385436794473676e-06
-0.0005253615729544046
1.979627019852966e-06
-3.610424466474365e-07
-1.283901086943877e-06
0.0005250268894686054
-0.0005172979839692473
2.328750339677066e-06
0.0005111610941059052
-3.016575330811591e-06
6.824714854436858e-06
-0.000597898345986637
1.831043031866512e-05
-9.403260191172594e-06
-1.538618901846161e-06
0.0005905297947610573
2.549173243804565e-06
-0.0005244163878778195
-4.115357685300238e-06
8.684588345172901e-06
1.503765222885428e-05
-1.155507477048508e-06
-6.665490903030253e-06
-0.0005759713134560565
-0.0004573691590808207
1.604989654937411e-07
0.000457014732754435
9.990687026623709e-08
9.40204905229282e-08
-0.0005157159561696167
-2.210837974327075e-08
-3.512060688238336e-07
-1.252117873254665e-07
0.0005162144824050425
1.803902867035359e-07
-0.0004576884771776388
-5.99997638136509e-07
7.389254407481113e-07
2.444552819194033e-06
-6.210923603277519e-08
-5.908370799326855e-07
-0.0005152566535040566
0.0004751195520059298
1.022424416465603e-06
-0.000476992789930744
-1.852666744418121e-06
2.703480252635968e-06
0.0005312428180642359
5.392567375255941e-06
-2.198918616598145e-06
-4.86574622486651e-07
-0.0005339498922006556
9.65283998493959e-07
0.0004733241425936528
-1.068870454677414e-06
1.898995861633179e-06
4.498963526150329e-06
-6.104447178571591e-07
-2.513420150048468e-06
0.0005380470223470381
4.122476614686865e-05
-1.064511056296611e-05
-1.953173666500335e-05
0.0006414590127078056
7.664530121254682e-06
2.590761031752775e-05
-1.172777999697999e-05
-1.676570531543761e-06
-0.000610401605781928
3.108694605218249e-06
0.0005326323365123108
-0.0005426771622745491
-4.934044740893208e-06
1.187017589752734e-05
4.007389571411473e-05
-2.471557906333926e-06
-2.079575775308941e-05
0.0006392619295767097
0.0001494052888786107
0.0005824826003642155
0.002521993819820994
-0.0001565309498130061
-0.0007876682108399404
-0.0007729475616091629
-0.0007750578305877053
-0.0007616771562148275
5.320823900093572e-05
0.000489385023445914
0.002461259706304884
-0.002854447679890101
3.030556911072723e-07
0.0004589292376327161
-0.0004593773876472346
-7.827412998305176e-07
9.278356233035152e-07
2.233442525755518e-06
-6.518276497411881e-07
-1.276950424024712e-07
-0.0005171698760132922
2.402897965011074e-07
0.0004580754877730974
-0.0004584512435290719
-6.891586548825197e-07
8.246246142808297e-07
5.272049381624996e-07
-1.941397081000344e-07
-5.943844187195273e-07
0.0005182617826264452
7.418403203868654e-07
0.0004675929779894833
-7.465702275241866e-07
1.308625779562711e-06
-0.0004688968738618532
3.026413740676859e-06
-1.792701153445602e-06
-4.703756193776518e-07
0.000530479481089023
8.469586976471388e-07
-0.0004717364722184413
0.0004702222700470765
-8.988426938294074e-07
1.566086167284905e-06
4.178718108748843e-06
-3.713197477901522e-07
-1.633488952675014e-06
-0.0005275354823690839
0.001496418735584916
9.177210168020347e-05
-0.0003487599897936246
-0.0003910158831653813
-0.0004021335997526803
-0.0001338582591533253
0.009047793468258606
-0.009024276683384312
3.541161281285687e-05
-4.293515899242653e-05
0.008568883864599608
0.001379361461382916
-0.008444303044267583
0.0009780286827779084
0.008841558259610607
4.564294781771557e-05
-0.009013301976807142
-0.0001817380663011482
-0.0001969690430084578
-0.0001793384443165158
-9.161592041083207e-05
-4.005995856260964e-05
-0.008783542867007147
0.008622795364249619
-0.0001152405535358235
-0.0001179488883952791
-0.0001199945094056099
-0.008544411584894666
-0.0006900622182009523
0.008477165388484351
-4.856096843850965e-05
0.0007814303757440697
-2.39660603245181e-05
-0.0009449065851328288
-0.008558926618464581
0.001002851763571928
-0.008569669895710286
-4.64724173226189e-05
0.008678006632378452
-0.0001263325259419513
-0.000117175979656646
-0.0001236330693635129
-8.182328328538937e-05
-0.008959382806525812
-0.0001890620012579348
-0.0001741144351019262
-0.0001745562953152462
0.001425985919508866
4.721810365303268e-05
-0.0003564836554707045
-0.0003023000530827551
-0.0003444249205425943
-0.002244870419207701
-0.002297197464161264
-0.002300999588432899
-0.002238371603372471
-1.915175215526287e-05
-0.001375766763094744
0.001305208088668381
-0.008469216191912342
-0.008459408061970677
-0.0002898614064786824
-0.0003194804441684001
-0.0003260840010692451
-0.002241769248543824
-0.002243717544507076
-0.002292413425794994
-0.002287546867272657
8.890307751226095e-05
5.100329337954967e-06
0.008194270088505245
-0.008215394379946037
-1.208213085793219e-05
-1.76024568951913e-05
-1.996459932689597e-05
-1.060751485732493e-05
-0.008147219028028677
-1.265203366578798e-06
-1.271653149537253e-05
-2.293650617149175e-05
-1.277685167623999e-05
0.002027302338625487
0.002033517284501484
0.002044810413130106
0.002043026121718702
-4.147536247643009e-06
-9.435683474022061e-05
-0.00815070452841953
0.0001052442938412746
-0.008161548331544859
-5.66225143105248e-05
-2.723816994922642e-06
4.691622700015641e-05
-0.008171269944806889
-8.484481691830546e-06
-0.008168292616883609
-1.215127706219942e-05
-2.327044885067455e-05
-2.152571608487618e-05
-9.560308689996345e-06
-1.5796136124411e-05
-1.056781858165424e-05
-3.371817918990068e-06
0.0001197967799053008
-0.008252547393595232
8.834779876390648e-06
-1.647805018614073e-05
-2.132642832715316e-05
-1.550117490294934e-05
-1.818592665732867e-05
0.00819664347019204
-0.0001587607344985634
-0.0082333703991121
-2.059977914925715e-05
-7.093797213383044e-06
-0.0001203755634652087
0.0001520112611383357
-1.28020258143743e-05
0.008205710414293705
-0.008254351630057166
-2.150748470878259e-05
-2.73912772694783e-05
-2.632540772021686e-05
-1.442334209025512e-05
0.0001524998500664475
-0.008301635268200967
-2.497312372838015e-05
-2.20318240953042e-05
-2.602529194613724e-05
-2.632726471006937e-05
-2.186160421787286e-05
-1.403402066230044e-05
-1.512395772549193e-05
-0.008546047963533147
0.0003706730390541558
2.750675800561208e-05
0.00844340523543881
-6.069134628602381e-05
-5.97858140840412e-05
-5.927045742010629e-05
-5.663611841440986e-05
-3.363244492225553e-05
0.008493875400029863
-8.171529176821061e-05
-8.179297260880992e-05
-8.116158770630198e-05
-0.0005002598795656893
0.00840370325439007
-4.552360553249316e-05
-1.978865421223395e-05
-0.0003622689913688824
0.008314248685774902
0.0004487183916250527
-8.165055550660193e-05
-8.370473926209499e-05
-8.195783629753167e-05
-6.91309740104671e-05
0.008336845142845445
-4.002500800234549e-05
0.0004577675043146367
0.008393517395917304
-5.951038052812922e-05
-5.660360393097144e-05
-5.80108129729542e-05
0.00836383582161725
0.0002783507223337294
2.201447997163851e-05
-4.386533753058738e-05
-4.284335864955806e-05
-4.46718507828562e-05
-4.532199219456858e-05
-0.0002101774841343119
-0.008280019612051359
-2.702457264169392e-05
-1.715005226632109e-05
-0.008315538935037916
-3.398606953761542e-05
-2.908976947254172e-05
-3.031395929318299e-05
-1.657208372645008e-05
-0.000272816514158898
0.0003458325630051545
-3.213975218261268e-05
-3.382144562670661e-05
-3.098410253637757e-05
-3.528509331743861e-05
-3.360505273684189e-05
0.0003522092220549191
-4.195879464232431e-05
-4.553530980361601e-05
-4.467126704001448e-05
0.002225324214496273
8.96510675288281e-05
7.600550734581039e-06
-0.00226210876267333
-1.478926424226599e-05
-7.966850105998953e-06
-1.493833131014459e-05
-1.050651310456865e-05
-1.226611132150982e-05
-6.59391541291974e-06
-0.002222530309895232
0.002191001518765826
-9.884730866149789e-06
-8.531637910758928e-06
-8.708172458075773e-06
-7.546208452779746e-05
-0.002220200680480794
0.00218635763284148
-1.181185097011158e-05
-6.72740516905589e-06
-8.886266080864263e-05
-0.00223710040849027
0.002193563544042112
-1.289108458767601e-05
-1.289156085458246e-05
-5.857609122404326e-06
-1.027138278839759e-05
-8.383692168230735e-06
-0.002243979867978553
-1.329165959100119e-05
-0.002258591703300839
-1.080348361202416e-05
-1.194102769859926e-05
-1.185473097054142e-05
-0.002312610834276338
0.0001174201027089539
8.786073635596573e-06
-1.697115460764734e-05
-1.814102332090313e-05
-1.133668506468621e-05
-1.539276101630621e-05
-1.386248074710837e-05
-0.0001473375042789158
0.002293873428734276
-0.002327635455963217
-1.659790442492024e-05
-1.030713275810086e-05
0.002308241035566701
-0.002368127530723153
-1.855347373097359e-05
-1.900028776191242e-05
-1.893386346747778e-05
-7.480620303922197e-06
-0.0001164317396326331
-0.002374335986714192
-1.969332599091805e-05
-1.599976954737596e-05
-2.232407495487111e-05
-1.843142202830725e-05
-1.947089210932427e-05
-1.472325218763739e-05
-1.49394298314406e-05
-1.391119729009162e-05
-1.410805441247817e-05
1.158095302799777e-05
3.328771765513141e-07
0.002033805263634246
-0.002039733220421766
-6.920731482716672e-07
2.77625907127248e-06
3.280682140957905e-07
-5.306397269420166e-06
-3.091730285069547e-06
-0.002031032143047026
-6.895283016249706e-08
-1.127867577953886e-07
-3.383646679303427e-06
-3.030852767666326e-07
0.002022852806815999
-3.022713066837112e-07
-1.247491164973984e-05
-0.002039405514016655
-0.002044197091730698
-1.305118814321587e-05
-1.988484659401114e-07
0.002034489495499621
-0.002045029552104017
-6.657096209281711e-07
-0.002037432537295325
-3.948483171792218e-08
-3.019172740040553e-06
-2.826453306433856e-06
-2.198712585112258e-07
-5.444771582910774e-06
-3.487594109305333e-06
2.632773053447371e-06
1.230895215714289e-07
0.002027081497005083
1.19793133191882e-05
-0.002046723387223857
5.879902773809974e-07
-1.173522524418145e-06
-4.923191108306148e-06
2.737660565212092e-06
-2.554707172642672e-06
3.366234326095509e-07
0.002054001655454466
-1.016818653046787e-05
-0.00205512668663901
-1.668365622511164e-06
-5.391369236116962e-07
-1.260086317296843e-05
-8.491852360850174e-07
0.002044881544067578
-0.002049999364423077
-1.404871244426798e-07
-2.134927475182339e-06
-1.970964208393124e-06
-1.113436378458706e-06
-0.002051842880531339
-1.684624651963402e-06
2.598842310176392e-06
-4.708017003139859e-06
2.014787422888339e-07
-2.305557892468387e-06
-2.238404568406473e-06
1.310677812416138e-07
-1.197655458132414e-08
-0.002169509173684104
5.220036614796356e-05
5.059446537577418e-06
0.002147904021648433
-9.940668888671935e-06
-9.957153328353459e-06
-2.927276773017083e-06
-7.413147935518414e-06
-5.416413723452772e-06
-5.774642137224213e-06
0.002167329261989701
-6.942071525590452e-06
-8.283402324365841e-06
-8.187208340710238e-06
-5.999706724718649e-05
0.002169940612953997
-1.057655641695481e-05
-4.624478788456789e-06
-5.220274648885826e-05
0.002140073635728289
-1.13216991655567e-05
-4.095084892233319e-06
-1.113509178485284e-05
-6.605608639410459e-06
-8.559854578943333e-06
0.002145741436295593
-9.386523723143896e-06
0.002145761944385991
-7.051324653049206e-06
-5.59511771584543e-06
-5.760875817253328e-06
0.002131239101519204
4.238050991724111e-05
4.457064205513441e-06
-8.769110010337574e-06
-1.856616222127637e-06
-8.86400594004742e-06
-4.331338746325122e-06
-6.351583090961292e-06
-3.765639044963209e-05
-0.002134346656487814
0.002116268043858306
-7.40654345195544e-06
-3.917818070129238e-06
-0.002129356488648664
0.002113899917087498
-5.269326977230116e-06
-3.773777211297347e-06
-3.931953322615497e-06
-4.145102374318818e-06
-4.213316383227256e-05
0.00211582190490957
-7.716386524975686e-06
-8.112795685843988e-06
-1.125659406631363e-06
-5.61984905164258e-06
-3.582321273353889e-06
-8.380625656430345e-06
-4.677624564912696e-06
-6.09831233762089e-06
-5.995743493333807e-06
-8.173227881510781e-05
0.002393608530432097
-0.0007387027570660573
0.0003458466402948883
1.331339612681013e-05
-2.988080746287627e-05
8.643435373637552e-05
-0.0007403352140597198
-0.0006112005159934854
-0.0006519754440630978
0.002428619551783254
-0.0007476719449648492
0.0004139698909948272
-0.0007434440499572493
-0.0007167100687826164
-0.0006632874189167385
0.0004385588800579395
1.876790746951362e-05
0.002571987928261311
-0.00269751123345173
-3.001018043208693e-05
-8.377263422655785e-05
-8.035954078056508e-05
-6.657692040698174e-05
-1.200502910304774e-05
-0.000421881645209481
0.00242728511464603
-0.002451740404667589
0.0004583419643339819
0.002434556604441364
-0.002454341453884405
-2.195048711435248e-05
0.0004682891874871835
0.00255967965716859
-6.396436925988969e-05
-7.622792443506699e-05
-7.731256351351347e-05
-0.002681789463827604
0.002463248563065391
0.0002842478084641063
1.476954229010985e-05
-2.683561996260998e-05
-4.197697959987316e-05
-4.176269589877316e-05
-3.847792396926853e-05
-0.0002071170928448251
-0.002401950267079764
-1.800001218319516e-05
-1.21593214981568e-05
-0.002454399089609348
-2.585569978045966e-05
-2.61748610305392e-05
-2.647491325098565e-05
-1.111689864907221e-05
-0.0002750888168057575
-2.2810884123776e-05
-2.9632358948538e-05
-2.465495136103998e-05
-2.658628776859784e-05
-2.66793558200708e-05
-2.034675392770642e-05
-4.062497994252294e-05
-3.712343956595575e-05
-3.721639176598558e-05
0.0006120612783192996
8.612528888445259e-05
0.002668120163437659
-0.0001146322477399245
-0.002669191882559895
-5.88858668597999e-05
-0.0005646975572526038
0.002456568285225091
-0.002462741230355428
0.000592784023659782
3.697234558179811e-05
0.002453587927934584
-6.514478459758753e-05
0.0006114159980225283
-0.002446683729942289
0.002649171388918384
-0.002706802087373318
6.84434534724645e-05
1.526669106715404e-05
-0.002069226639456486
1.665469076861804e-06
0.002062672411805882
-3.28895825644673e-06
-5.255685585429536e-06
1.702158174228915e-06
-2.837084411497974e-06
-6.983624149771916e-07
-1.971038682496512e-06
0.002067631907480154
-0.002073782021275293
-1.343398366478643e-06
-2.884127590382305e-06
-2.761377872736624e-06
0.002074982540160262
-1.642764091802068e-05
-0.002078105045247007
-3.830942862959803e-06
-1.564538988140196e-06
-1.545372034875802e-05
0.002060323005911433
0.002065564022869767
-3.204738397649342e-06
-0.002075521522179527
-3.893523262779622e-06
1.412291543207578e-06
-5.522421350238709e-06
-9.976633367697672e-07
-3.102480507138282e-06
0.002060932159810844
-2.497584254948227e-06
-9.006923986712705e-07
-1.044568573938215e-06
0.002057758329676427
1.205403091776915e-05
1.383653331004683e-06
-2.73594382560683e-06
2.054507012627768e-06
-4.952491740721862e-06
-3.461947349858133e-07
-2.543478845300196e-06
-1.202097691483581e-05
-0.002063879028092208
-2.12697609092567e-06
-1.108589949546731e-06
-0.002056127221322675
-2.065100580461103e-06
-3.003518926441543e-07
-4.419423572466028e-07
-1.319841635569958e-06
-1.194845764775033e-05
-2.191431081411639e-06
-4.815825694928988e-06
2.294052754743867e-06
-2.402536579976152e-06
-9.837716031166062e-08
-2.704773702349261e-06
-6.893100248339093e-07
-2.339665486261494e-06
-2.203685421430217e-06
0.002083976242379861
2.254759927896676e-05
2.645142754167486e-06
-0.002092598315675982
-5.220561835575476e-06
6.260097852627325e-07
-6.308793398117503e-06
-1.798908425171551e-06
-3.868414861561551e-06
-2.291061826291939e-06
-0.002082348235745264
-3.161588653588797e-06
-1.61943953119528e-06
-1.766370964543964e-06
-2.054857142223361e-05
-0.002089290926482272
-4.400651313742641e-06
-2.502593547928433e-06
-2.238734342391572e-05
-0.002089169064855658
-4.522028668271334e-06
-5.935882255501799e-06
9.942501410979232e-07
-3.502787023638786e-06
-1.418465277851206e-06
-0.002094455695155444
-5.104184922850975e-06
-0.002090800200622484
-2.146296858243949e-06
-3.639568136902917e-06
-3.524743810738725e-06
-0.002103911358488449
2.773630690810133e-05
3.02374933881822e-06
-5.963297929075633e-06
-6.851888911041311e-06
9.662529980284285e-08
-4.393701630335344e-06
-2.334750277786942e-06
-3.078132823832664e-05
0.002108439130983371
-6.592049695131327e-06
-3.451190658025035e-06
0.002102193521497407
-3.198383930163993e-06
-4.658758510017405e-06
-4.549664068892716e-06
-2.824397935823123e-06
-2.78618294776105e-05
-6.803065259370943e-06
-4.030538514699982e-07
-7.368464309247898e-06
-2.849524832136002e-06
-4.897864256981239e-06
-5.775922268232526e-06
-4.049041447433323e-06
-2.532537833458158e-06
-2.684461905603478e-06
0.0004916774676932753
4.424339594420545e-06
8.349438624710201e-07
-0.0004952583782949531
-7.714052925040552e-07
-0.0004985600815274551
0.0004950016619904287
-4.301326625482179e-06
-0.0005575099603746403
0.0005527988128221454
-1.715575840642932e-06
-9.261796474931571e-07
-4.466673913678742e-06
-0.0005590795003299425
0.0004881545849871649
-1.549849224764542e-06
-0.0005607883582862566
-1.931614616825257e-06
-0.0005021918115901657
-0.0004995866342933419
5.235755408187429e-06
8.988612735365394e-07
-5.486416427846478e-06
0.0005663867837464282
-0.0005705394884302105
-2.246392786718114e-06
-9.776315897473519e-07
0.0005065618042949756
-0.0005111184595154044
-9.821718130453805e-07
-5.268853970783642e-06
-0.0005040862211634503
-1.964461158383651e-06
-2.002721928537509e-06
4.625407323543696e-07
2.253968045250552e-08
0.0004538910307181802
-0.0004543300890380005
-4.602209317429527e-08
-0.000460297685316324
-5.173754465792889e-09
0.0004594422696181221
-2.748137115531257e-08
-4.56122676200054e-07
-0.0005117400788980643
-0.0005135963390247053
-8.446793656627799e-07
0.0005110259573918092
3.600443469135154e-08
-0.0005133773339807635
-8.703097985722679e-08
-0.0004607312683259975
0.0004530492179539
7.361090786393242e-07
-0.0004550351794486725
3.334982566950788e-08
0.0005154650058607357
-3.212219223064203e-07
-0.0005150899527633287
-1.535957223806422e-07
-2.959611558266345e-08
-7.388498601340918e-07
-5.072368280226513e-08
0.0004614367683705254
-0.0004617080530494952
-3.226847850841795e-08
-0.0004553042066774859
-1.029183894213404e-07
-0.0004852914098381035
3.545583049657816e-06
6.681499124629116e-07
0.0004824201740814381
-1.342497205779033e-06
-7.206881881530283e-07
0.0004920969851730117
-3.592006710773846e-06
0.0005503258654417831
-1.67821239656453e-06
-7.305989398455539e-07
-3.56608031643712e-06
0.0005448052496936424
0.0005464370879905883
-1.483446795095695e-06
0.000489199054758819
0.0004800601720490603
2.993766200005647e-06
6.264836665326464e-07
-3.003783987022242e-06
-0.0005444387268104573
0.0005410427329819643
-1.287625566461804e-06
-5.819630565720625e-07
-0.0004868011155212813
0.0004843603275045564
-6.974005578023706e-07
-3.024422894919331e-06
0.0004776433911989581
-1.168966205252596e-06
-1.466149008157208e-06
0.0006130680303572975
4.291340198823755e-05
3.886011325134939e-06
-0.0006530389416238185
-6.828502047699228e-06
-3.005312381098434e-05
-0.0006902616998024405
0.0006590551187248655
-5.684747459461527e-06
-2.73331943277614e-06
-0.0006207280729788235
0.0005935155504581411
-4.183229444863781e-06
-4.256816007620821e-05
-0.0007161181934374768
0.0005858659421338088
-5.584355032108025e-06
-0.0007218636269916964
-6.980463798225627e-06
-0.0006594102217413535
-0.000460643735737044
1.032714779510121e-06
2.189644535057276e-07
0.0004598309011118671
-2.404904846714114e-07
0.0004671351547155725
-0.0004677953256386963
-8.897565695272445e-07
0.0005225055189205461