/*--------------------------------*- C++ -*----------------------------------*\
  =========                 |
  \\      /  F ield         | OpenFOAM: The Open Source CFD Toolbox
   \\    /   O peration     | Website:  https://openfoam.org
    \\  /    A nd           | Version:  7
     \\/     M anipulation  |
\*---------------------------------------------------------------------------*/
FoamFile
{
    version     2.0;
    format      ascii;
    class       volScalarField;
    location    "0";
    object      Phi;
}
// * * * * * * * * * * * * * * * * * * * * * * * * * * * * * * * * * * * * * //

dimensions      [0 2 -1 0 0 0 0];

internalField   nonuniform List<scalar> 
12682
(
29.04956597512872
29.04918415210075
29.4258184630532
29.7890242879265
29.69703235459562
29.33669068434785
29.78111297349214
29.77651344603604
29.75153845858504
29.74190818926942
29.33577644156568
29.14537270652021
29.32721369141559
29.04957359005158
29.32722645113405
29.33525398331083
29.14559854029655
29.69028486180112
29.32351662718135
29.68676437522526
29.40117950707189
29.04693920342473
29.65573105270359
29.3129629090364
30.10413306321319
30.06111101178933
29.78843712315404
29.91268559763524
30.05937610035118
29.81657191505692
30.00944209392173
30.00849157357597
29.78794409937579
30.05811737014779
29.91366380236436
29.43122491970998
29.41976895210233
29.69667753934155
29.71874287461928
29.41974884330465
29.62317282941406
29.43055702639308
29.52834133747221
29.69635570937687
29.4196956763337
29.6246078105073
29.82402595695885
29.05088245444601
29.33726717136668
29.72510919445048
29.43332340192566
29.96893633906065
29.80950930635725
29.8106190132647
29.96693238067737
29.17124975264302
29.027266682016
29.17110643077771
29.02727786967749
29.60891935251694
29.75853552551413
29.75949968974571
29.60828502628726
30.02371696658197
30.02122259858031
30.0252108909386
29.21933236242566
29.36384118890511
29.36416703410421
29.21915585121372
29.55950164801017
29.41232683755608
29.41269589295653
29.55893470265186
29.85115467294701
29.79885118490615
29.82506509998596
29.87704886527574
29.06328067009407
29.01530007734038
29.08725947725008
29.01529505656807
29.72248648671578
29.77316146537361
29.77345549205569
29.69697579012234
30.13181488770879
30.1304148794829
29.32809668930409
29.37648335859445
29.352316167116
29.30384516279844
29.44959908896729
29.40077755767843
29.40086967653045
29.47391839837119
29.93087041386439
29.9849218950745
29.95803290796492
29.90355772728315
29.13530520984576
29.18333837530994
29.15933483361858
29.11126963983939
29.64699430725226
29.59701627396244
29.6220446229183
29.6718304498059
30.1009966616521
30.01277834595324
30.01354131703352
30.09985425012603
30.16527973775625
30.15811127934434
29.25562574479228
29.20740047068326
29.2074409391843
29.27969042945469
29.52309383454231
29.57225159790737
29.57241322715953
29.49840978509345
30.04239542772514
30.02547194242791
29.93522136241506
29.83146244693673
29.82446402579555
29.92385675848632
29.92434779599943
29.83213897158688
29.93432787005064
30.04058686633774
30.02426553621383
30.02472340080054
30.03950291971149
29.14688855777872
29.05111297809695
29.14616580868328
29.05091331724934
29.14622885985617
29.14681535577985
29.05114355232973
29.24282376604097
29.33741468489547
29.24158870201289
29.33889963320813
29.24169207962523
29.33908194647964
29.24269850269765
29.63155355798266
29.73054121055411
29.72547884227821
29.62710245289395
29.73106195197461
29.62740766622851
29.63114611071641
29.53323838331391
29.43351861528295
29.43557856005905
29.52988833376882
29.43582429130313
29.53013570367245
29.53291939691794
29.86339263308266
29.81115590306479
29.80969499389792
29.86120222805919
29.81135332392117
29.86142935147612
29.86315634491598
29.91629969494501
29.96728180055136
29.97000189411543
29.91351823184956
29.97037352123603
29.91379155756384
29.91600979990915
29.07525997639838
29.02728896017128
29.07517924745025
29.02726833029621
29.07519050844485
29.07525074569669
29.02728975725157
29.1232547302698
29.17113131392757
29.12312879111908
29.17126753107941
29.12314265344639
29.17129155330343
29.12323862212648
29.70931189267792
29.75987764562112
29.75869812647477
29.70801275803279
29.76004691500345
29.70814941973869
29.70916590341259
29.65907206543208
29.60838917607509
29.60911942337492
29.65798141869574
29.60923079459328
29.65810462042235
29.65894426051722
30.15030401437538
30.15446772823768
30.14358465633092
30.13430631587863
30.13489843941638
30.14267758246469
30.08343852034937
30.02166165113893
30.02539118908559
30.07723451993799
30.02588585974307
30.07778304679373
30.08276367183737
30.15493606729948
30.13946358463783
30.14161802612576
30.15135496231829
29.31586062985073
29.36421828551178
29.36389626114092
29.31549962896677
29.31554262146875
29.36427398859985
29.31581400765316
29.26757450943182
29.21918375904048
29.21936064375426
29.26727493655539
29.21939153580307
29.26731417219259
29.26753540482031
29.4615814680433
29.4127726243697
29.41238674327006
29.4609861870331
29.41283699552361
29.46105946991452
29.46150659333185
29.51053432110046
29.55902990038831
29.55964108893461
29.50983717293275
29.55973916825239
29.50991688943464
29.51044898678653
29.82496147483588
29.79902833295995
29.79889851572097
29.82471555347684
29.79907491048521
29.82476785177948
29.82491130090531
29.85104385566543
29.87711067310504
29.87728755347048
29.85077376918903
29.87734652335881
29.85082945314731
29.8509894745139
29.03928306546249
29.01529450298354
29.03927501072352
29.015299565133
29.03927696805901
29.03928170538203
29.01529497827055
29.06327702470067
29.08726311396306
29.06327424809945
29.08727067024224
29.06327572855765
29.08727364769159
29.06327484585725
29.74781561618149
29.77332290610421
29.77320640776863
29.74762946773055
29.77336613063192
29.74767030527513
29.74777529261114
29.72240883169745
29.6970111703485
29.69709855191041
29.72223509322489
29.69713365879597
29.72227406603972
29.72237130982894
30.16400427864446
30.13066560754893
30.13139617147112
30.16243020531243
30.13162673075211
30.16279414524444
30.1636256440401
29.35228969564464
29.3765292052944
29.37649847319817
29.35223857141419
29.37654351635605
29.35225158789596
29.35227642002352
29.32807108525544
29.30385597350124
29.30387633305985
29.32801993016899
29.30388750350912
29.32803278866509
29.32805894637588
29.42517634492635
29.40082311779537
29.40079280900145
29.42510588594593
29.40083862478163
29.42512332969753
29.4251597131809
29.44956303416865
29.473938493411
29.47398081527668
29.44949130674023
29.47400000461715
29.44950910938232
29.44954508012457
29.95787266621027
29.98530692196753
29.98501591266157
29.95744980584612
29.95753196828076
29.98539374413576
29.95779470430849
29.93072448348262
29.90362428369394
29.90382895463974
29.93035328587091
29.90389331725449
29.93042811759026
29.93065395040624
29.1593241496045
29.1833596416129
29.18334545049643
29.15930579227097
29.15931085228371
29.18336603667183
29.15931859922078
29.13529500443487
29.11127280791782
29.11127649562899
29.13527417273305
29.11128030119144
29.13527941223319
29.13529037469554
29.62198512410369
29.59710416230161
29.59704320537383
29.62185784828319
29.62188765491458
29.59713106978708
29.62195645255465
29.64693207512571
29.67186450138755
29.67194540399792
29.6467982853402
29.67197816863601
29.6468291886376
29.64690135265953
30.04180499593214
30.01323951586162
30.01288444798712
30.04117317543201
30.01333737944048
30.04129880068744
30.04169245239448
30.07088320751602
30.10004332696312
30.10058858620764
30.07011067275419
30.10075597757677
30.07025991892754
30.07074957358046
29.23150519468152
29.2074192715981
29.20740732763331
29.23147018523964
29.20742660521624
29.23147904125792
29.23149698889853
29.25560757546137
29.279701287162
29.27972295967461
29.25557365018445
29.279733091209
29.25558250612298
29.2555983570459
29.54766932757362
29.57233586079827
29.57227778947238
29.54757130667292
29.57236099229086
29.5475948794105
29.54764573887432
29.52304804881797
29.49843026045652
29.49847342667224
29.52295326754457
29.49849403580786
29.52297619560051
29.52302606493895
29.91686798647929
29.97222307101582
29.91511682873917
29.96793874181028
29.91773473709519
29.9711089688564
29.91431769891627
29.86474806511462
29.8130753892996
29.81248464078566
29.86545161422295
29.91798489352276
29.97366112962353
29.91885397052759
29.97252008401927
29.86385318997868
29.86253328902872
29.81232848304465
29.81006125675369
29.81173825793831
29.86455820735367
29.86186459358879
29.12328628647622
29.17140967136285
29.17117764826708
29.12322076322005
29.12317398802106
29.17133790191976
29.12333610448674
29.0753055596031
29.0273101448098
29.07533421917436
29.02730285254566
29.12333325429443
29.17147865934422
29.17140663327071
29.12338356326428
29.07527799633301
29.0752398279462
29.02726995703757
29.02730233257435
29.07520846122349
29.07530761448339
29.02729334818398
29.6593213565531
29.60978309223927
29.65871503663762
29.60860021205286
29.65970377426723
29.60944881591483
29.65834547638107
29.71012273017772
29.76150165200786
29.76099468052718
29.71056230929835
29.65976412299323
29.61016512189221
29.66014795046599
29.60982931753729
29.70959709136838
29.70883936860898
29.76088236589551
29.75901395305755
29.76037656252864
29.71003465426691
29.70842339696739
30.08480213075307
30.02837061774031
30.08030405823281
30.02248350807235
30.02687835443398
30.08685325488845
30.07879378941795
30.08765074590178
30.03042600435344
30.02882171043368
30.08998657756644
30.09229015951535
30.03025418146764
30.02709079413774
30.08206844454712
30.08420707185405
30.03255839067372
30.08937086360854
30.09655811702002
30.0324776655212
30.03502823344468
30.09292154311417
29.26765070033695
29.21954559707123
29.26750520355116
29.21924345672039
29.21945224282964
29.26776747668364
29.2673895094494
29.31609535878169
29.36471997047752
29.31623606095958
29.36455347977881
29.26776710746358
29.21963828471685
29.21954446301664
29.26788387905137
29.31595228068171
29.31576691999353
29.36454921247034
29.36400327098097
29.31609264216533
29.3156324945697
29.3643827344296
29.51070162954242
29.5602241479039
29.51032528534926
29.55921628573027
29.55993065398284
29.51095793589501
29.51007981402843
29.46196479664185
29.41336043497978
29.41316644633884
29.46218901004669
29.51098043666529
29.56054835253231
29.56025408813394
29.5112376296521
29.46172769797915
29.46142168197009
29.41315687424799
29.41251033754514
29.41296337775386
29.46195164344978
29.46120266871124
29.82783724922736
29.826431129992
29.3381440986432
29.14653381780234
29.43447973200151
29.62887719664974
29.99060460197394
29.82601410907965
29.43526063279643
29.63147504053086
30.0455524819556
30.04378766695189
30.04308257985407
30.03184450240835
29.77284499481116
29.6177408621449
29.33873984629785
29.14678200979922
29.98787599908927
29.81636509998014
29.97848976054305
29.82305366864211
30.17647241889459
30.16643161875458
30.16928515455354
30.17878771494243
30.0316271088095
29.94772994333865
30.05977356651215
30.15379521463507
30.17999355948304
30.20383284867092
30.14882555939167
30.07442280738551
30.15556412026283
30.06381039791976
30.04932352008424
30.02697147345597
30.02694186955607
30.04743863003042
30.02632100620021
30.04480764878024
30.00282084695209
29.93505537089952
29.94311697041496
30.06224822915049
30.09857752454937
30.11901479190676
30.19824340746576
30.11556688476584
30.05852764500315
30.09888940772709
30.04103150637184
30.0974962757473
30.11880992310235
30.05375506317508
30.17084545675871
30.1481383900405
30.15005898186645
30.1670613943727
30.12343865744025
30.04736254161267
30.05406083882352
30.11482692781038
30.1729932829314
30.15033929579759
30.15076370675417
30.1728734127734
30.15811849195521
30.14594629296911
30.1622211952467
30.14356255501258
30.228528507811
30.18508258965154
30.20895651418447
30.173093914921
30.20729735543428
30.22907740538728
30.17952917192227
30.22333190876495
30.1709451006332
30.20119503875564
30.17353471629521
30.21238594371331
30.20522104060149
30.18060967518464
30.09245741556034
30.12475233846058
30.2090813634757
30.18177555317243
30.20892516172932
30.16103884584954
30.15305915410245
30.11458750414655
30.11957379322625
30.12171711147021
30.1547269233448
30.12515376197758
30.12222854755667
29.87609259389762
29.81960416227416
29.8733177581489
29.82186655925651
29.94533102302314
29.92764608515321
29.82935302161644
29.83793103809944
29.92870761117463
29.94218361291354
29.84108471199756
29.97017324962754
29.81478347758078
29.97360066584972
29.81134092885115
29.1713415827379
29.02734713200649
29.17177293802313
29.02728976843669
29.21945199374051
29.36537195270154
29.31594614332317
29.22001065574945
29.60933875712115
29.76310425780219
29.76012380994735
29.61131807990491
29.55987088921372
29.41409444812697
29.56161526427501
29.41294195312917
29.83097775204032
29.88746509623395
29.88010486005151
29.82991313029823
29.88555316129167
29.76447209281236
29.77030843008366
29.61223144271375
29.61606417414496
29.56724224540477
29.41776925836297
29.41462563407631
29.56241611714923
29.56577916769036
29.41681721527456
30.10065130348372
30.04216606646694
30.10615128455787
30.03811265053386
30.09558123245892
30.02918588190076
30.08927281324551
30.03883270770019
30.09985055115089
30.08645359761744
30.03532546687845
29.77695616489195
29.72382393536207
29.7758100362537
29.72038609666027
29.722806333696
29.66883401358633
29.61932849302304
29.67072535541113
29.62001004654267
29.67154845784852
29.36851985151601
29.02737508940866
29.17196967760312
29.17278038251953
29.02748558649277
29.36582666637527
29.22026836621953
29.36770902840687
29.22132005574126
29.9974631509345
29.98460086760535
29.93174651479418
29.93821391998133
29.9925032453212
29.93394074980754
29.92851316086562
29.82762108842489
29.88310644047936
29.8793299689737
29.82454488856075
29.9863025237678
29.99106207943056
29.932198181383
29.9286453113495
29.87474377159165
29.81865425492823
29.86930993660383
29.81829576326762
29.87158225258494
29.87213656047556
29.82081183485688
30.00328043030087
29.94084067130015
29.99675180525879
29.93629483279062
29.98156587484729
29.98388152038475
29.98795943701789
29.93024300297658
29.92311113512191
29.92575588717875
29.92701986486603
29.87699950316698
29.82635537727738
29.88135907692443
29.87777756391952
29.82042933393647
29.87403341616296
29.82334029701023
29.14599768813105
29.04957491046689
29.32720627692041
29.92638010912936
29.9252230916892
29.82528114385982
29.93686881635653
29.83343705714223
29.83536291806256
29.9392212057356
29.24220335367049
29.3377056541543
29.24189594521555
29.24307206662071
29.33944239621843
29.33999176568279
29.24345122896619
29.05102410171595
29.14635127565813
29.0509623391097
29.14703339908301
29.051187564943
29.05125953810787
29.14725529292655
29.53134381911009
29.43390271658271
29.53062011560025
29.43630952516959
29.53386720787896
29.43704843388931
29.53482359636311
29.72721449999123
29.72618626795679
29.62800037071144
29.7320778258018
29.63235410551438
29.73360834408737
29.63356819722114
29.43625907990551
29.53354495606581
29.53231586559246
29.43807469501458
29.53615066872309
29.5379109602966
29.43943791279215
29.63003828907808
29.7285398598526
29.730111290301
29.73570224172493
29.73842096953069
29.63524661364355
29.63745874067636
29.24262185446654
29.24316145612697
29.33950582345499
29.34075482660849
29.24397807489023
29.34176790894836
29.24467706366695
29.14710244787443
29.05121263724651
29.05110640250977
29.05136073151472
29.14756407956506
29.14797385283862
29.051495561151
29.97176787661289
29.91613077180783
29.97366282287652
29.91887135095152
29.97547689863226
29.92032173089332
29.91744841244762
29.81685295447764
29.86745280460521
29.86996442202082
29.86815097199838
29.81339391795554
29.86580569216567
29.81534311750909
29.97770393507566
29.97592203086773
29.98049567717031
29.92093310413293
29.92433790295486
29.92211290117469
29.91898955269673
29.86338405143456
29.86548858501794
29.81311020369282
29.86668047051598
29.81228027186269
29.86449794654682
29.8141108082661
29.12328518169921
29.17150497806727
29.12340296562612
29.12348804105732
29.17146021997766
29.17162600092502
29.12336711169038
29.07545921265905
29.02737528026029
29.07545981296808
29.02732421183718
29.07538700974879
29.07553360889055
29.02735091066092
29.12359213221131
29.17160086231888
29.17195047444246
29.12358722533211
29.17177345203281
29.12346698822827
29.12371699230439
29.07527793363514
29.07534693886931
29.02731458102205
29.07539744735202
29.02730459928688
29.075328187656
29.02733069869444
29.26765410135008
29.21966996440419
29.26792231025707
29.26811864493079
29.21960426798712
29.26784571119913
29.21982758902854
29.31680462792204
29.36580206353854
29.3649753837304
29.31678367502923
29.3164500591214
29.36539154138513
29.31715119992637
29.36437869943742
29.31627930545714
29.36476997187338
29.31651590876642
29.36465110982861
29.31617471008553
29.36505004780579
29.26835785367112
29.21978830673107
29.26835190530306
29.22025059577495
29.26807357072157
29.22001993693297
29.26864506742619
29.65919212968814
29.66021086654285
29.61022704112464
29.6608573672585
29.60987868965602
29.61079210250807
29.65981177952499
29.76474593155786
29.71226546103695
29.76190167332219
29.71196113091103
29.76346174861686
29.71092451014045
29.71337046451747
29.70938279870116
29.76155249120917
29.71061533557024
29.71135631216606
29.76093875386518
29.76240935597156
29.71008597937542
29.66164907344008
29.6105249181539
29.612320608782
29.66145746524755
29.61148388634431
29.66054669201153
29.66260929370307
29.510649370531
29.56061342300935
29.51129847798011
29.51173111243576
29.56034837743264
29.51106495639013
29.56110863296081
29.46308636080556
29.41461782982315
29.46303924655823
29.41363471758005
29.41413875625591
29.46250572085789
29.4636410005496
29.51225996637742
29.5609160317642
29.51217231072389
29.56244513053097
29.51156361020331
29.56171393355154
29.51289744715339
29.46170518500859
29.41341405585865
29.46224866196386
29.46262590260136
29.41325652721511
29.4137403387809
29.46207068916415
29.76627241664842
29.76614794333562
29.76809693072071
29.71624208410353
29.71315023657618
29.71468132394094
29.7145929361664
29.77279216943174
29.76801251902474
29.71818604884058
29.72024470096448
29.77023697784317
29.71807058174858
29.71621499016967
29.66509461489324
29.61330947638567
29.66249815779329
29.61333033021419
29.66374544901051
29.61447947966701
29.66376409930054
29.66690967711902
29.61745047733829
29.66853671947426
29.66667042737634
29.61457250579845
29.61584333485457
29.66518339198698
29.56851823660423
29.5170693029628
29.51815638332499
29.46730212053762
29.41852584896746
29.46818756226394
29.46506100131644
29.41518133829305
29.46365092626737
29.41525673632832
29.4642935567337
29.46438539183312
29.41584248417059
29.51453342824925
29.51287470785663
29.56330749330953
29.56338315414096
29.51364877956252
29.51371384328305
29.56432585483252
29.56690010862767
29.51556032180015
29.56447007978259
29.5157952052277
29.51466444357961
29.56550955072881
29.51676182819028
29.46594972819678
29.41597237519762
29.46619878581983
29.41749796619595
29.46521141846524
29.46698746148403
29.41660754448516
29.36913519978024
29.31943704300477
29.31995619659693
29.27096203806586
29.07572287995109
29.02740411859033
29.07554229406883
29.02740651265049
29.07562079916721
29.07564190455714
29.02743769989531
29.1240347798122
29.17215797024133
29.12372728926906
29.17220482172199
29.12386362924612
29.1724006407241
29.12389140844786
29.12423209980516
29.17246812937469
29.17300330194205
29.12429616694676
29.12445992041167
29.17267997599962
29.12407886067676
29.07584024049477
29.02744408841036
29.07588465256403
29.02752135054589
29.07597614974586
29.07575230909139
29.02747660840515
29.31803474925223
29.36628420433172
29.31716960934713
29.3663705980926
29.31755830577215
29.36684959184817
29.31762612304479
29.26937630529979
29.26867082762704
29.22052135794554
29.22057200930159
29.26898196941691
29.26905162287032
29.22083770361029
29.31858488054432
29.36698206529913
29.36826159899705
29.31875212979794
29.36750252761686
29.31814421522287
29.31922273272883
29.26983081850507
29.22091716906466
29.26998598075122
29.22162441054987
29.26947917620767
29.2703576910366
29.22120250795256
30.28606945789993
30.20120724515038
30.24868137792938
30.26338261549819
30.2211225716877
30.2347538253469
30.06667027870079
30.1016408492648
30.17309421861841
30.14100587824506
30.2289164821535
30.19662939329394
30.22836614596126
30.20003353123749
30.12914509765211
30.17088629312478
30.13179136133028
30.17577036451023
30.14476459694036
30.17506135470969
30.33385592346015
30.37005299939593
30.24790627809525
30.28156414801951
30.30788207250581
30.39951387157745
30.28976300915307
30.31207310054922
30.34751514637427
30.32384006178203
30.27116020029379
30.30630190486532
30.33433008886243
30.37636249734193
30.35181673050473
29.81772068086941
29.87101933135843
29.86913467360296
29.8161615595352
29.07548837546823
29.02738492910957
29.07556398242304
29.02735999050375
29.31695892494609
29.3659933492503
29.36557536061439
29.31731174897739
29.76546223717202
29.71284513353934
29.76414073428796
29.71398132631919
29.46334331458909
29.41484712200265
29.4143586505277
29.46390913870825
29.76704854986108
29.76894519551049
29.71695520181796
29.71533935885479
29.46536268459781
29.41542386824517
29.46457797403718
29.41609941201354
29.07575671955657
29.02741433737081
29.0756529527328
29.02744863191905
29.3182135078398
29.36648633890747
29.31772758426971
29.36706308910853
29.81386824490288
29.8663941725945
29.86761175092396
29.81489008989449
29.98250870461081
29.97945818027684
29.92573761704668
29.92338467733905
29.9751567756649
29.92001166411758
29.97706492854833
29.92150608417893
29.02732255328714
29.07537400538244
29.07542532720894
29.02733924737994
29.12364390477353
29.17202770248988
29.17184781289097
29.12377094087905
29.17157494958162
29.1234513146317
29.12353784465698
29.17169762460903
29.36494286155992
29.31642451028651
29.31666466091191
29.36522702926964
29.26848279824117
29.22035433745673
29.22011971013546
29.26877486070228
29.21976387530013
29.26804009412708
29.26823909589956
29.219923832813
29.76218194834704
29.71115223969678
29.71190930539629
29.76305665762901
29.66213621018673
29.61275976882536
29.61190206218613
29.66312146140173
29.61061553785435
29.66066274997364
29.66132243059941
29.61119199340195
29.51256400198482
29.5628153003806
29.56206736012511
29.51321549726024
29.41362035945008
29.46248935277204
29.46287271428192
29.41395191469743
29.56094277736998
29.51158240738185
29.51202281374909
29.56144705936068
29.77381075342572
29.72112780006244
29.77118881580411
29.71886351905214
29.6656864119521
29.61377906860913
29.66429523607463
29.61498311058472
29.61805595385729
29.66925942474707
29.66732414194735
29.61639540361836
29.41885225256523
29.46857465090376
29.56907563509264
29.51862427243714
29.51489332532622
29.56370224487777
29.51398678224457
29.56474718238692
29.46627596726221
29.41779579698507
29.46733906173692
29.41688432069862
29.5673999990143
29.51595071879772
29.56596902661675
29.51718486641975
29.36940462316557
29.32018055000126
29.22225210906659
29.27114244042953
29.12409475631915
29.17223938358279
29.12392044655233
29.17248630332184
29.07587661734159
29.02753404430935
29.07601492375981
29.02748830636857
29.12429625638595
29.17310126951324
29.12452866011693
29.17277177798228
29.26952047107366
29.22063056057705
29.26911882259339
29.22095285757015
29.31877662390816
29.36850779086764
29.36773218341498
29.31942831329546
29.26998543638553
29.22175633325752
29.2705229546986
29.221325738134
30.33063218693174
30.42421976241944
30.3577884235604
30.37543900860254
30.40059474745386
29.96887576241161
30.14460067583041
29.93812968411245
29.99316032405247
30.01955375946834
29.93851234165218
30.11809630193359
30.04645258420349
30.08479026696409
30.09753751484111
30.19092406672513
29.91110605816013
29.83611388391142
29.89076499564768
29.82936211547608
29.83425263496979
29.88364923644288
29.78081656045869
29.72703927966056
29.77593060007989
29.77948018452853
29.72590568533826
29.72310831277462
29.67335755209704
29.61978315629124
29.67121332857315
29.62157197145987
29.67428986674589
29.62233836814622
29.56902733207481
29.57044220778542
29.51980477504418
29.51860263727517
29.46960035945083
29.46863464693079
29.41972957565401
30.13419556357349
30.18453401192592
30.22142786021612
30.19226839142956
30.2238210918866
30.2551789166754
30.23342424887562
30.25889738426523
29.4700227801502
29.42008506750379
29.57106096735853
29.52031968598966
29.37044773198393
29.43748406807207
29.14750175716979
29.24383210729428
29.91832018418937
29.8307425556248
29.92913888082778
29.86755508367428
30.03131624941982
30.02565451387502
30.03554353690399
30.00155308943708
30.06466440149579
30.09515817135501
30.06827805180868
30.09676722610048
30.1519869293008
30.12409631829507
29.17312655013955
29.0275351025862
29.73180949994324
29.74179510343214
29.64030288608501
29.63314709219712
29.2217744606803
29.53502622021796
29.54019327685512
29.44121120151677
29.05134543788591
29.148505022623
29.05167075067774
29.34045377136976
29.34308440601159
29.24558376076448
29.17337339045118
29.12454249320709
29.12472108400826
29.07602966881682
29.027572890296
29.07613144471826
29.27054985632222
29.22210843310368
30.00422122286676
30.04497579771887
30.10876307505747
30.07591602820963
30.11501923470049
30.08641168848404
30.13922934667741
30.17010130275296
30.28068790138245
29.02758665683051
29.07617385413323
29.17348026704974
29.12479589087419
30.28053819623882
30.3027659476924
29.14326466092009
29.0499426130094
29.14210723088056
29.04956779654831
29.14211211461526
29.14324786333268
29.04994853814104
29.32443371484961
29.04917355538848
29.32432248877759
29.31641329648218
29.04809938459134
29.31668944235819
29.04806256985921
29.2569380505817
29.60687996914574
29.08962395180774
29.08793890680044
29.04670311852137
29.42618468190002
29.60781342227898
29.89039948012856
29.88053551090071
29.78894096028485
29.79749192000028
29.88040205909201
29.79747179417263
29.89047380032012
29.61061153381123
29.60474604989719
29.69698533295468
29.70412085260386
29.60472374738712
29.70413406726338
29.61058024709425
29.24125404835944
29.33618700665111
29.24088853832069
29.33330318045463
29.23891156515852
29.33357181803468
29.23911649129616
30.04982586810447
29.78033708875783
30.04814929356922
30.0216812840313
29.76105418132143
29.76018586499277
30.02300317524319
29.75675707344824
29.86859670108193
29.95586043754292
29.957478774907
30.02078994524973
29.75958830927607
30.01673976438249
29.91064619157032
29.73886179674487
30.0139126758034
29.7408245095405
29.75414608635259
29.91143243461487
30.01030939982482
30.01471475809799
29.75553580134558
29.7415852220585
29.91344348386237
29.75470839540753
29.91304228123614
30.0159113944702
29.24059290480252
29.33546473382486
29.24036954722749
29.23859399966378
29.33306625189648
29.3328771024309
29.23873410859326
29.05063956745382
29.0506211846612
29.1453254468569
29.1443674607871
29.05030019311446
29.1443362816654
29.05031139007669
29.23661769145026
29.23465655006218
29.32721981114663
29.32999286430049
29.23466317708127
29.33002712139161
29.23659119252364
29.14329585221348
29.04957068406802
29.14212699190246
29.04997414187709
29.14211973855365
29.14333854886009
29.04995939342709
29.23666675786215
29.33017314378844
29.32722673342918
29.23468008326929
29.23467281249365
29.33008979270381
29.23673337564615
29.24021888098597
29.33514600243593
29.24014173069016
29.23849690390981
29.33267630647101
29.33274518338246
29.23844638608593
29.05071795011423
29.14546403497076
29.05067239256146
29.14442713965185
29.05036137068049
29.14451318303698
29.050332132401
29.416103108736
29.6897237143788
29.41592699221173
29.40565164844514
29.67276711053723
29.67204078887105
29.40602278477984
29.31523280480229
29.04908052304589
29.0479026827885
29.14083330302708
29.23248463208411
29.31621739831226
29.04803635093319
29.50640390298569
29.40408445551088
29.66911903985671
29.59793991180871
29.50686399932618
29.40538959235933
29.67153740844991
29.66442707822842
29.65303745458825
29.39402586431559
29.40244578681997
29.65477703592186
29.66668460903763
29.39505757067943
29.31412652851817
29.0477754478383
29.30857199333605
29.04689758571019
29.30837002524736
29.31441130424709
29.0477365162013
29.40270855857234
29.6678713819269
29.65544721338451
29.39559777759221
29.66716638431801
29.39528052131152
29.40308684306988
29.04674433942378
29.30739759983926
29.04757635030982
29.31392780865976
29.04685695772335
29.30819916969403
29.04770942210601
30.00961281280861
30.00958433132371
30.10471345206239
29.99516905804978
30.08694511532945
30.08776097286996
29.994780644691
29.98259066746563
29.97132408020486
30.06083632145145
30.07389288831069
29.97112595891641
30.07363416627685
29.9827447511761
29.8902171905012
29.78875513808293
29.87963708118829
29.79724649284118
29.88011380248144
29.88987733538183
29.79740345455619
29.81562034601932
29.81538748188241
29.91247496426907
29.90121992185383
29.8063741217013
29.80645550915443
29.90118792052959
29.98224667964312
30.07219161475163
30.06026865647699
29.97003630107485
29.97070833106421
30.07308494920069
29.98165750673277
29.91341401072426
29.91302979435775
29.81603434253426
29.90123209132133
29.80669266532611
29.9011538351006
29.80657883606738
30.10503226107576
30.10495556514749
30.00932204058633
29.99534998003362
30.08842981889165
30.08822492251876
29.99541070711135
30.10301640678631
30.10112288287441
30.00933433174624
29.99287008101832
30.0856602007667
29.99406353892957
30.08377483788338
29.88842477409235
29.78722185803949
29.87892482842373
29.79694137793937
29.87792033108134
29.88930919652254
29.79640983348437
29.97942866304096
30.07088478548694
29.96906278882648
30.05644873465061
29.96773428499431
29.98074756775758
30.06908927662355
29.81760767096501
29.81714237977986
29.91369445626738
29.90027997115505
29.80671905814189
29.90088162557367
29.80654982836215
29.52700723039404
29.43082745888553
29.52653103693214
29.52193390815535
29.42754465452919
29.42731536797525
29.52218823216048
29.51704301575568
29.51229652922252
29.41977114359126