/*--------------------------------*- C++ -*----------------------------------*\
  =========                 |
  \\      /  F ield         | OpenFOAM: The Open Source CFD Toolbox
   \\    /   O peration     | Website:  https://openfoam.org
    \\  /    A nd           | Version:  7
     \\/     M anipulation  |
\*---------------------------------------------------------------------------*/
FoamFile
{
    version     2.0;
    format      ascii;
    class       volVectorField;
    location    "0";
    object      U;
}
// * * * * * * * * * * * * * * * * * * * * * * * * * * * * * * * * * * * * * //

dimensions      [0 1 -1 0 0 0 0];

internalField   nonuniform List<vector> 
12682
(
(1.138803565329909 0.004696241098572116 -6.22739509500544e-06)
(1.129368117164917 0.004681278358495953 1.044325544290693e-05)
(1.038289711792346 0.01416470358279587 0.001738919159908982)
(1.128331616993294 0.1007228109921876 0.0005490886265479478)
(1.13321733487833 0.08523128666390993 0.0003350562382211011)
(1.175534991728234 0.03688374203494506 -0.005799392605004874)
(1.114120335662112 0.09341914839930789 0.0007284022318067506)
(1.100202686071612 0.0961653624347401 0.01767337041658186)
(1.069610518956038 0.06072488517302638 0.01276616573351556)
(1.059306709526858 0.04860186848879215 0.0006199261249092355)
(1.172750029513461 0.0316067715565145 -0.003937916442173474)
(1.166471374220352 0.01160014576021338 -0.0007334979431800607)
(1.138884617704759 0.03437057114922006 -7.617913336071471e-06)
(1.138902866902917 0.004941352518684711 -3.06708285574271e-06)
(1.13855706431301 0.03608935633758749 0.0002588544474661581)
(1.171038576836011 0.0291013932940868 -0.001706834063846585)
(1.1682352835178 0.01257330089665546 -0.001709895141986803)
(1.119485826567348 0.08033081528830528 0.000528352933337453)
(1.1235383522114 0.03863786191889922 0.004638668140205755)
(1.107589523290301 0.08518685030690502 0.0142929487265763)
(1.084418355938972 0.03391867283915555 0.006406299767652487)
(1.074190887531715 0.003027766363824052 3.999100303187498e-05)
(1.062738259635628 0.04214661658585722 0.0005473922816934265)
(1.086590392664708 0.02652080548445783 0.004910772773701198)
(1.145453022535277 0.2289893606237976 0.009935220722693792)
(1.096593708975299 0.1473727674141222 0.001608957828840502)
(1.125058520929669 0.103705085465379 0.004883098519540081)
(1.18980782437311 0.1426116591228032 -0.002190487720517051)
(1.091284981764517 0.1471382848713187 0.012409877184593)
(1.189182780268453 0.1214505804338848 -0.005570719784799152)
(1.180330862562603 0.1800665920761406 -0.0005088741088996908)
(1.152423479156215 0.2078476366169833 0.01358976911271601)
(1.122726741983749 0.1053670191733171 0.007177988877771625)
(1.087907686123279 0.1463850625318312 0.01681708062556562)
(1.172553818298126 0.1736613813584447 0.003224235013899884)
(1.176244948587425 0.04317145408737378 -0.004969774550901503)
(1.138604882989376 0.04549874259470849 2.387291911436807e-05)
(1.130795174833289 0.08834063507076979 0.003222752934771928)
(1.188243867142766 0.0870938380247747 -0.003108138020399621)
(1.137952200511068 0.0476892955310782 0.0005947257224842766)
(1.184577861382331 0.07386270264923431 -0.00645770396066438)
(1.174645291604935 0.03969379678667269 -0.002174546886431334)
(1.181944403537258 0.066656081791682 -0.007992740858118555)
(1.12900814901939 0.09019871743249311 0.00492403781944712)
(1.137380019092704 0.04911453361090634 0.001163792218105892)
(1.184748699756745 0.08638720222465079 -0.008095296209852346)
(1.220451575230922 0.1010025026136508 -0.00201955251574429)
(1.172111605801146 0.003056542554752844 -0.0001056607854295334)
(1.179732126103812 0.02350408904460807 -0.0007943013653568125)
(1.210258902939509 0.07563514102574131 -0.001826044609147513)
(1.185070287878869 0.03237471634014984 -0.001042904117248556)
(1.326857664778118 0.0976102507612053 -0.02027676784048041)
(1.262647501743855 0.05287843927840251 -0.001858745162243361)
(1.266105845864526 0.05480168793467196 -0.01356790321061263)
(1.321267963404141 0.09283234342767782 -0.002813488674454178)
(1.182941133365744 0.004621683853857369 -0.001837604858057963)
(1.179565557565523 0.0009825092017402661 -3.67910233435885e-05)
(1.18191969404845 0.00456582318722828 -0.0002527328122561532)
(1.180411489898709 0.000985520128473794 -0.0002706410150578451)
(1.220853798618841 0.02734101728748818 -0.008262145393890464)
(1.248594445782541 0.04075033393958798 -0.001654194488075013)
(1.251541435893657 0.04193677713107465 -0.01203203289200219)
(1.218883209016459 0.02668881336381074 -0.00112864597453134)
(1.35636217218541 0.1417145136431884 -0.02266958669914019)
(1.350327106627703 0.1333812461294323 -0.003147805800358941)
(1.359617822790396 0.1520286447010389 -0.03043387800661062)
(1.184694680245918 0.006902783826575548 -0.002382403236687208)
(1.191706847061518 0.01128627382560117 -0.0005781316458850439)
(1.192954664080038 0.01145266947098344 -0.004211565619901326)
(1.183636092554796 0.006785620562411005 -0.0003252277126106808)
(1.213322856056024 0.02178599908104524 -0.007317045808313417)
(1.195599868646325 0.01435169243960579 -0.0006665626296101386)
(1.19693875282851 0.01462592759952713 -0.004881096158406583)
(1.211557693242504 0.02136768354160081 -0.001003828386288806)
(1.289888370989299 0.005698181485340814 -0.006403034970190522)
(1.268969856288542 0.01515496104502218 -0.001068105605458128)
(1.279604674946619 0.005027023849095038 -0.005888424343698346)
(1.299144337201162 0.01946106102729356 -0.001352976166288616)
(1.181417549469519 0.0001590903620697571 -0.0002571876284666711)
(1.18083867558444 0.0001660206440484679 -1.025480451408407e-05)
(1.181480151929964 0.0006266534466588946 -6.861624252956178e-05)
(1.181090613415855 4.290645966732242e-05 -6.482665064490577e-05)
(1.247811847872377 0.00343520039123195 -0.004410342772720829)
(1.260787385627004 0.01294789829720595 -0.0009951833203973577)
(1.262069659225015 0.004103767872864218 -0.005079412435079111)
(1.240711968223624 0.0104703450449144 -0.0008054658687687499)
(1.53599816391721 0.09981062481223157 -0.02877962753965541)
(1.528407802812205 0.09824579393114037 -0.003452821976101347)
(1.191544503115024 0.0009247027625588412 -0.001427325103281672)
(1.1948007451978 0.003481010519185523 -0.000329607869684689)
(1.193277407025885 0.001026676227313363 -0.001565058572956891)
(1.189646033420694 0.002818293142087142 -0.0002556994315799115)
(1.201942225700729 0.001430864593284074 -0.002116428633697987)
(1.196859310389607 0.003995748899907942 -0.0003550602589027868)
(1.1972329856841 0.001224859958747144 -0.001828481239951329)
(1.204138859496002 0.00482837525592877 -0.000441756957215614)
(1.329277239548345 0.007959149184140753 -0.008204185528051681)
(1.361334367399702 0.03232836238679618 -0.00194208238837712)
(1.346310622103337 0.009334924467921932 -0.009062125142839886)
(1.311918682805394 0.02350933146605087 -0.001466988719938429)
(1.18271950910892 0.000338892241570326 -0.0005440914623229284)
(1.18388158621514 0.001466360674679885 -0.0001478780871868497)
(1.18338186147768 0.0004159775216920189 -0.0006573662322768112)
(1.18191107044489 0.0009678402119548722 -8.747384348920618e-05)
(1.230802814310316 0.002699654908900417 -0.003623053035860751)
(1.221069986287063 0.007520673682419601 -0.0006169622178908131)
(1.226060518759497 0.0024531556131974 -0.003371028095520359)
(1.235113968075458 0.009111749302114029 -0.0007544458710012274)
(1.484651483989126 0.0674704186958114 -0.02347061553467628)
(1.383701445050738 0.04137661757512617 -0.002139036689052936)
(1.389199802781799 0.01279781161442966 -0.01108279362898889)
(1.478692197771797 0.06658384420366281 -0.003051847126984602)
(1.70734285183926 0.1151898529137701 -0.1149366486611839)
(1.658212029061496 0.1063651949594153 -0.08305005634099538)
(1.187245977554412 0.0006985022344784673 -0.001087535204265785)
(1.184779565890987 0.001836349857194685 -0.0001679476810077559)
(1.185056869324124 0.0005588071972976131 -0.0008670746177417774)
(1.188221183652046 0.002394787528627505 -0.0002335404762848533)
(1.210617512557733 0.001788081813541495 -0.002584926776296892)
(1.217093454179601 0.006604858175066895 -0.0005786153098060722)
(1.21768511438921 0.002080882041966377 -0.002954961916301367)
(1.207008534289939 0.00549313299568072 -0.0004722632923258611)
(1.292019545521501 0.1982313427806236 -0.01963358981585347)
(1.222377569478333 0.1992442534380699 -0.007014282225469967)
(1.276299048568307 0.119920421597982 -0.01147360127398579)
(1.251655853565149 0.08011650851356014 -0.00323861333117753)
(1.220797364543181 0.103297307082139 -0.006037311763688765)
(1.228253028981744 0.1366718249158628 -0.002041980653663678)
(1.228026104740792 0.1398573694696091 -0.00603660677124457)
(1.253094359663539 0.08231675455278888 -0.009824072498833842)
(1.275053859627201 0.1162421748361905 -0.003798407957574276)
(1.294882680599969 0.183926952656052 -0.01196297212220876)
(1.226953449611806 0.186717206929763 -0.001674494662094105)
(1.225485344624454 0.19090729627394 -0.004801876853253931)
(1.294910844439816 0.1775715155385657 -0.004059169175031181)
(1.179498829061285 0.00661453481505624 -0.001226872817758243)
(1.177299713736419 0.00210520739280619 -0.000123318941383857)
(1.173335601765966 0.009266658705509637 -0.0003294886619297309)
(1.172596466800166 0.003096547687812481 -0.0003238361402854628)
(1.173835549648432 0.00942376567263134 -0.0009964664244179666)
(1.178869299427771 0.00650792909921299 -0.0004039759327208685)
(1.177958136542239 0.002155007408080915 -0.0003909831430646956)
(1.182666029919671 0.01145013588896862 -0.002091079032192393)
(1.180278928906527 0.0239239294263958 -0.002397710288328452)
(1.175853247606003 0.01596274565984235 -0.0005575408773301109)
(1.186901665084796 0.01668385305587774 -0.0009958921702547577)
(1.176372555911058 0.01624015812058982 -0.001683753164885709)
(1.187627449907146 0.01696772796328729 -0.003018889011839059)
(1.182002819688353 0.01126568745955438 -0.000689845628468717)
(1.216656581918909 0.04310418809858928 -0.006544673577193666)
(1.231531571554816 0.05742184220482457 -0.002666157667622405)
(1.210822539898608 0.07727097898089666 -0.0054859071766466)
(1.200441204757599 0.05716735627711569 -0.001571149241839266)
(1.232827647479807 0.0588045435976428 -0.008093099285939291)
(1.201060655313952 0.0583372345482182 -0.004731614793398928)
(1.215550328642517 0.04219790189961458 -0.002156454457380226)
(1.20414890665374 0.03195928039258755 -0.005205923000388326)
(1.18564995309381 0.03297489471357336 -0.003146842828217605)
(1.193837468826854 0.02317273153905593 -0.001333786274366465)
(1.191965375389642 0.0432589211030788 -0.001303724135403569)
(1.194654840433094 0.02359115623281051 -0.004044458951808747)
(1.192575535195587 0.04409865821514315 -0.003931175386460044)
(1.203205919699066 0.03134756532392349 -0.001716073455560074)
(1.290617610088305 0.03842728495846143 -0.00699045312157944)
(1.270689156726447 0.03171196573298776 -0.00206470944841782)
(1.263240897463233 0.05322945245726424 -0.005537443682142025)
(1.278544821415089 0.05937869555553394 -0.002144697570466645)
(1.271380798955695 0.03198141998567856 -0.006045713664323868)
(1.279258007235307 0.05974896053316137 -0.006346077325340534)
(1.289759750038873 0.03806625937740937 -0.00239117010748633)
(1.314789269058364 0.04948097704280256 -0.008109292949194952)
(1.322285109998991 0.09352220856421194 -0.008218211734255108)
(1.343810245333615 0.06155608786554354 -0.003285513149424987)
(1.298723651713692 0.08034122185397199 -0.002417215701327353)
(1.345220553512907 0.06233230757346445 -0.00954792087882339)
(1.299575423663723 0.08092875382410479 -0.007125441768022144)
(1.313702337304904 0.04895876158455248 -0.002782501713974043)
(1.181139482419199 0.001163986733717274 -0.0003338513945332607)
(1.180561280484458 0.0004734457393376736 -4.005466716869348e-05)
(1.179893750663813 0.001657253667962059 -0.0001050366278033286)
(1.179715377939277 0.0009987770059848452 -0.0001247010062419813)
(1.180050173853067 0.001676657768608876 -0.000314449616949701)
(1.180975465577425 0.00115340591287726 -0.0001128259569216241)
(1.18072473115532 0.000477682777604227 -0.0001216199560462435)
(1.181987399487936 0.002137023343758733 -0.0005535631294782766)
(1.182089769128301 0.004586030536562667 -0.0007593791331975889)
(1.180679865990995 0.003762052495605695 -0.0001757439155740136)
(1.183112667891691 0.002882567989953179 -0.000265237650022716)
(1.180846130093714 0.003789298516008728 -0.0005318601282784624)
(1.183288648990441 0.002898503401014435 -0.0007828897952481462)
(1.18181723617725 0.002122478150587236 -0.000187625882775945)
(1.242580952783477 0.02212021619623925 -0.004623800479732026)
(1.255001920756835 0.02565874266850391 -0.001801204502774579)
(1.249100876679813 0.04098124535570518 -0.004932756780887115)
(1.237223696424898 0.03691210327602299 -0.001445218278052211)
(1.255573401007723 0.02585981954759929 -0.005284414048456348)
(1.23765513155019 0.03714579588902549 -0.004332561167714748)
(1.242100313386566 0.02195922317500745 -0.001574553006762676)
(1.23165445609906 0.01831565448193084 -0.004070143656109393)
(1.219213884725551 0.02685500762728939 -0.00339656660295822)
(1.222130359479424 0.01580007606412498 -0.001215776249733612)
(1.227174717884798 0.02919028981996478 -0.00128841158427038)
(1.222489296801233 0.01590540467247538 -0.003576704056330704)
(1.227553274975428 0.02934754568086841 -0.003859970084995831)
(1.231241827663253 0.01819014236819083 -0.00138421923637612)
(1.594629299482574 0.08018317743892199 -0.0403499982962497)
(1.618080317566711 0.08424122642933492 -0.06026296277103255)
(1.497307822393949 0.1849154041857282 -0.01556636594692304)
(1.40035449244758 0.2336731628851094 -0.003719695800168283)
(1.40077853530619 0.2373360669776479 -0.01092706672051674)
(1.494329719683615 0.1805483098207886 -0.00556284472902627)
(1.435888050039789 0.1182064940127212 -0.01338878455612126)
(1.351459136967953 0.1345177939020178 -0.00911660934639243)
(1.383125844640406 0.08463231939010424 -0.003893904182011979)
(1.380222873936552 0.1614022252435885 -0.003583508393474026)
(1.384977349929065 0.08588994979928621 -0.01124925883430869)
(1.381220779306276 0.163020397066453 -0.01033675234492574)
(1.433471242988436 0.1160258511475728 -0.004668479305785487)
(1.523662020341231 0.2623006829503317 -0.07290339812546195)
(1.404077293140704 0.289638732838109 -0.03381067026816906)
(1.402251984027047 0.3074010152783824 -0.04245326089604887)
(1.515191378153011 0.2317745906482764 -0.05676767181760919)
(1.190156638429792 0.006010542239952468 -0.001522442947175393)
(1.193337197318828 0.006978831263275757 -0.0006101012062293262)
(1.19191508440851 0.01134291056473362 -0.001740966190386071)
(1.188502219182641 0.01022158755133409 -0.0004861966618298931)
(1.188696118084389 0.01028744248921892 -0.001470317719353758)
(1.193555142848493 0.007018587707624344 -0.00179935306695716)
(1.189953157718403 0.005975120777868039 -0.0005163052269569132)
(1.187338122232569 0.00480318192592466 -0.001265091422904101)
(1.183811532008509 0.006830534325094867 -0.0009837492747442756)
(1.184883284866268 0.003928423141788839 -0.0003449834443985342)
(1.185789921050914 0.007685754719901248 -0.0004076323211766576)
(1.185066290719607 0.003951808352489833 -0.001017446270440273)
(1.185974435207943 0.007722906193288169 -0.001227175628257673)
(1.187145905434703 0.004776830197511987 -0.0004287717327597267)
(1.202411205439895 0.009749069819755407 -0.00241383847474776)
(1.197386078248584 0.008433285703619156 -0.000709807442466317)
(1.195822467221236 0.01444226448027817 -0.00201400183787192)
(1.20007912177038 0.01568251269203909 -0.0007729127091791359)
(1.197621364166205 0.008484242678768145 -0.002092145720876218)
(1.200323087455799 0.01576301799564419 -0.002325913328314158)
(1.202153895759305 0.009691364128761993 -0.0008189675675366387)
(1.208066535751554 0.01163487919084721 -0.002760109029836188)
(1.211855040651711 0.02147960455271564 -0.003015879457261159)
(1.214363738341044 0.01323814696198262 -0.001069565435473108)
(1.205450900542049 0.01960287343040926 -0.0008760870041623219)
(1.214681294628879 0.01332190933025975 -0.003149456542451382)
(1.205716588010466 0.01972508153299541 -0.002642981202519394)
(1.207782745503211 0.01156235146287841 -0.0009371158727178972)
(1.279216150187353 0.005150918514989587 -0.003456882320708377)
(1.269856168622342 0.004812436135598983 -0.001010574619152814)
(1.269146681573178 0.01520886470693262 -0.003187801433770028)
(1.27801468396322 0.01587574202022256 -0.001154377259894947)
(1.270026311228784 0.004775504293001967 -0.003210625457273825)
(1.278213989788401 0.0159122293361503 -0.003437041691859837)
(1.279026473449901 0.005192732381661485 -0.001089292785841494)
(1.289452391770177 0.005838187266767324 -0.003740227236416232)
(1.299398315140052 0.01950128893986361 -0.004021849433586418)
(1.300630676111653 0.006408685923664624 -0.001273094721082534)
(1.288105457732247 0.01846721200189723 -0.001244333402404539)
(1.300869942015511 0.006357016063322648 -0.004049071639883783)
(1.288326641618727 0.01852919138264425 -0.003710046773462558)
(1.289239748175185 0.005883508474211535 -0.001174811958928558)
(1.18112014507424 8.97511098514415e-05 -8.994592632702327e-05)
(1.180968869020576 4.145672954196356e-05 -1.0661974884714e-05)
(1.180964537332627 0.0002597666705933034 -3.028474039091619e-05)
(1.180882892481386 0.0001683076264691763 -3.067163360002613e-05)
(1.181006477955579 0.0002572504826947275 -8.915717364788088e-05)
(1.181079413302766 9.071596133938035e-05 -2.889853913386239e-05)
(1.181009256788749 4.202326783799133e-05 -3.456004613779846e-05)
(1.181333783360419 0.0001635746642005779 -0.0001486778197891602)
(1.181522306744218 0.0006272758113566377 -0.0002047015756296772)
(1.181179163098127 0.0005337596643254833 -4.889922699563107e-05)
(1.181607721261578 0.0002129440062128391 -6.5535596048941e-05)
(1.18122073800749 0.000539313588167338 -0.000146917128263162)
(1.181648953386516 0.0002111522905568796 -0.0002048690370722196)
(1.181292858877645 0.0001643510411579874 -4.713753986978704e-05)
(1.254326977360356 0.003920940721055884 -0.002782351173491456)
(1.261602289380493 0.004242634863377974 -0.0009419212455801473)
(1.260949176214353 0.01298358358103668 -0.002969386667040686)
(1.253543790664535 0.01239382202091833 -0.000924566186102454)
(1.26175591710366 0.004208961111636416 -0.002983408692676587)
(1.25368838763816 0.01244395202849599 -0.002765412097639353)
(1.254186932640355 0.003950683417962621 -0.0008774352498723105)
(1.247549820141883 0.003525103228673852 -0.002592339203597662)
(1.240833165531499 0.01051435034312826 -0.002410255053294705)
(1.24124895946668 0.00332723507749357 -0.0007655214367761596)
(1.246831674018469 0.0109002540028276 -0.0008642907300968289)
(1.241366342326365 0.003302387160101251 -0.002424218136397628)
(1.246965231453186 0.01093202287763197 -0.002581036788396683)
(1.247421868116756 0.003553143975608197 -0.0008195997249213161)
(1.623703274996648 0.04194185782621803 -0.01220880205597956)
(1.529918709319419 0.09842083221762292 -0.01002726919013711)
(1.545567247998455 0.03184279258385924 -0.003129341002769807)
(1.588921152585874 0.1165775135410995 -0.004132631185771122)
(1.547040732296615 0.03168005292029266 -0.01035555830183321)
(1.591250494278054 0.1167090682440542 -0.01172317540699308)
(1.620981348910117 0.04208955075918722 -0.003645779034236249)
(1.193167972662334 0.001056803390176461 -0.0009169306294063562)
(1.194994811470716 0.001136415508898155 -0.0003152493254955031)
(1.194857602602818 0.003495678941209786 -0.0009888757029712209)
(1.192948524312636 0.003340869550840704 -0.0003035329156351675)
(1.195049957023295 0.00112800778527938 -0.0009912809871734751)
(1.193002672295883 0.003361620475300727 -0.0009127848104032702)
(1.193114687530863 0.001063897699446872 -0.0002910382385758218)
(1.191439017700951 0.0009510693092742159 -0.0008415852668325746)
(1.189696686256759 0.002835521545915729 -0.000768171152869715)
(1.189808480590626 0.0008928746103901712 -0.0002451526310803003)
(1.1912256148776 0.002944658064351588 -0.0002799726698244989)
(1.18985822449078 0.0008869363351287461 -0.0007721769027621622)
(1.191278342904206 0.002956165401405818 -0.0008392619292402688)
(1.191387554254687 0.0009582250507152714 -0.0002677725475461718)
(1.199369872991473 0.00133951513476424 -0.001152108587602268)
(1.197058054588333 0.001268798452738214 -0.000340001482197744)
(1.196917863174795 0.00401859516968924 -0.001066397532194922)
(1.19910740085596 0.004151979379018509 -0.000383220447019761)
(1.197115452983569 0.001260125909681862 -0.001071606915758573)
(1.199169094944903 0.004168317767630318 -0.001148701274589093)
(1.199309885048544 0.001349615434418401 -0.0003661819681508524)
(1.2018133148365 0.001472237467817784 -0.001240214644718003)
(1.204206865417775 0.004848016102278064 -0.001324635760820515)
(1.204388559694432 0.001574886211049774 -0.0004219446089962677)
(1.201540556929326 0.00465009008171282 -0.0004108581457391013)
(1.20445423780514 0.001563122922970652 -0.001328294724473595)
(1.201604501654616 0.004676753498858632 -0.001234659118955553)
(1.201750537221355 0.001482423914212445 -0.0003933341601324149)
(1.345569389027431 0.009536313611730379 -0.005273610821188406)
(1.364644201582523 0.01075522812260382 -0.001810887748041917)
(1.361786113252347 0.03236910451696579 -0.005737249278538021)
(1.342831499738132 0.03016600747140034 -0.001755035169501016)
(1.343211235538385 0.03024477251726373 -0.005207642158533407)
(1.365062245479448 0.01066917177350144 -0.005802935859741364)
(1.345209083196885 0.009610499155536032 -0.001644968352036453)
(1.32863600911879 0.008135280870162789 -0.004804278819925793)
(1.312204218705168 0.0235764099724556 -0.004360942698270587)
(1.313590578926899 0.007459736901871224 -0.00137942577092526)
(1.326301015515081 0.02491330234899741 -0.001607115651808843)
(1.313862824533708 0.007401645335868422 -0.00440525005359722)
(1.326632473526581 0.02495227751864437 -0.004762021817608023)
(1.328323871640263 0.00820176170201075 -0.001505676275137393)
(1.183293059049654 0.0004282812397404519 -0.000383994713092133)
(1.184020972412596 0.0004837697534007754 -0.0001414722715906829)
(1.183926562101608 0.001471523804477611 -0.000443038956689812)
(1.183126007428822 0.001365358329698857 -0.0001269752706810235)
(1.183169820365144 0.001375514939986828 -0.0003816524352928475)
(1.184064891854711 0.0004800852574917568 -0.0004437796401868433)
(1.183249839423509 0.0004309288300414402 -0.0001219555803349043)
(1.182632265192675 0.0003481358626454928 -0.0003221357640302204)
(1.181953603426741 0.0009748159473915304 -0.0002618326027204944)
(1.182039625954604 0.0003003355819450726 -8.394350170153675e-05)
(1.182466818212397 0.001065006802015891 -0.0001076720471384877)
(1.182081401224876 0.0002985124125463722 -0.0002643195425718041)
(1.182510116866871 0.001067026746706064 -0.000321255155107891)
(1.182589757465349 0.0003509813160596039 -0.0001028238168205445)
(1.225868628683224 0.002519828866820589 -0.001983148258581224)
(1.221428273403127 0.002390732517664334 -0.0005883136236265982)
(1.221159798222647 0.007556587691907495 -0.001849435133689696)
(1.225392461980327 0.00780527984299029 -0.0006604005123211475)
(1.225489708267605 0.00783181998159679 -0.00197590938663578)
(1.221515717460709 0.002373409493569643 -0.001858945309906179)
(1.225774937366844 0.002539433931873589 -0.0006284478658475153)
(1.230596233333753 0.002773889269914755 -0.00212167158874255)
(1.235227268386768 0.009142038460524821 -0.002256463522606367)
(1.23561865626219 0.002977297060626418 -0.0007170196814839127)
(1.230087314670322 0.008762736435992605 -0.0007041921142852102)
(1.235726935600685 0.002954190164382197 -0.002264872803791957)
(1.230190663482406 0.008803657768196874 -0.002110781424708784)
(1.230495562120836 0.002794308029265757 -0.0006708457982792686)
(1.415730894048738 0.01493936572771829 -0.007150378132351974)
(1.387694154112314 0.01314417663110037 -0.001992042481162554)
(1.384229938044086 0.04146266301073557 -0.00631927638191828)
(1.409681732526188 0.04498442201331142 -0.00239715102623244)
(1.38818654660727 0.01304356622792445 -0.006426639806165335)
(1.410329083639353 0.04501607638416522 -0.007039857460496386)
(1.415141070297023 0.01505784485159978 -0.002216106724363474)
(1.449415852596372 0.01888496530251837 -0.008019892611597787)
(1.479760357145587 0.06661040269711427 -0.008874441608023914)
(1.490361302113311 0.02287837695202669 -0.002778804964161125)
(1.441501183874186 0.05939307060284891 -0.002667814995656514)
(1.491327680159361 0.02271823969234204 -0.009053008506621267)
(1.442299643975192 0.05949821630867618 -0.007844953805789883)
(1.448685342269055 0.01902492547367906 -0.002463699858336858)
(1.185995346881284 0.0006297716740295235 -0.0005695961571530509)
(1.184920262724261 0.0005786884458225753 -0.0001611179673855679)
(1.184825176219859 0.001848264185329056 -0.0005041964365810813)
(1.185812203679067 0.001943904293022177 -0.0001896995125386915)
(1.184965093598743 0.0005749471035458186 -0.0005073190458714513)
(1.185859127311774 0.001950659620202081 -0.0005680887668483734)
(1.185949392986841 0.0006345928853123444 -0.0001814378353448523)
(1.187149197099006 0.0007191813355882299 -0.0006366551906641291)
(1.188270777651085 0.002404666866028889 -0.0007006059124475736)
(1.188381038606592 0.0007840487982846986 -0.0002235084549249217)
(1.186962645416779 0.002278840601676984 -0.0002106228012514124)
(1.188429323473395 0.0007782357717031674 -0.0007020827645393868)
(1.187010445570102 0.002294121941184058 -0.0006335391529811872)
(1.187102081585663 0.0007238561745931967 -0.0002021683397123613)
(1.213856716954958 0.002015228036143975 -0.001629467682634335)
(1.217435684051791 0.002155058133431087 -0.0005515313618425663)
(1.217178769545954 0.006629713757394777 -0.001733282062496107)
(1.213496781353409 0.006364184956756691 -0.000540277018346872)
(1.21751767156255 0.002138685690220903 -0.00173874599027914)
(1.213575883484455 0.006397459580830409 -0.001621864090554592)
(1.213779317493371 0.00202960587032375 -0.0005161480069590653)
(1.210467811863874 0.001837902809108504 -0.001521795813929441)
(1.207079259156956 0.005522117989887105 -0.001417349749089102)
(1.207266742761416 0.001745901303469928 -0.0004514307012092278)
(1.210125751916877 0.005697259666903048 -0.0005063740441772402)
(1.207335875646119 0.001733624360169611 -0.001424267612815877)
(1.210201233108333 0.005718605703199525 -0.00151687270435859)
(1.210394733008533 0.001851934534128338 -0.0004830608741773987)
(1.316838728787892 0.04938930499206406 -0.01408523868299878)
(1.35205458213364 0.06456727426873923 -0.02413315763206439)
(1.303576648558659 0.08413460282720954 -0.01757701854623676)
(1.324039974647532 0.09584695694908209 -0.01430066538145514)
(1.320085100871302 0.05070868686514134 -0.02035063005031763)
(1.347840097338912 0.06252828560099979 -0.0166344069530344)
(1.301110596639074 0.08258695458363216 -0.01237379328632939)
(1.297760756365667 0.01312960164057922 -0.01353010951593482)
(1.278865216152675 0.01056827307469 -0.01581814146439773)
(1.276677351888412 0.01070348258519964 -0.01156413215077306)
(1.300525914251521 0.01301489636960157 -0.01848483182053132)
(1.324669422677161 0.01685673296273302 -0.01601223243908855)
(1.365068477498687 0.02202752887556134 -0.0264388279152746)
(1.328309725454221 0.01680236553817405 -0.02188449035495533)
(1.360012865472129 0.02191885298206729 -0.01934705171516704)
(1.292242099329332 0.03823260575486347 -0.01209830847066131)
(1.282617907279563 0.06162136050655777 -0.0155491658913643)
(1.274763581462696 0.03232935045998817 -0.01502490338865396)
(1.264350777495803 0.05401197686683005 -0.009561121462664501)
(1.272701168100671 0.03171856025759654 -0.01044856064021752)
(1.294795596364131 0.03907627871697664 -0.01742375884131445)
(1.280552306323738 0.06085084180239858 -0.01097443144875593)
(1.182320130794592 0.002096081259976436 -0.0009488166107358124)
(1.184159092686838 0.002866118409407166 -0.00191048810000623)
(1.182430772537417 0.004625166820024771 -0.001301892147655014)
(1.18167322177962 0.003833395108104209 -0.001295926254039653)
(1.181179521716967 0.003798196263405774 -0.0009144740206617147)
(1.183632975584095 0.002847615653410191 -0.001340580316566922)
(1.182829069744995 0.002111891708099519 -0.001352124208853235)
(1.181952329799034 0.0003970732651974683 -0.000609128541653942)
(1.182008993311488 0.0001369087441127293 -0.0002824878949195213)
(1.182451727938187 0.0003861346822521264 -0.0008291132077772555)
(1.181515677146992 0.0001432869432904911 -0.0002111211607634103)
(1.182831307328949 0.0006928923774321952 -0.001010106038469261)
(1.18469824265923 0.0009392831186976011 -0.001955949989610687)
(1.184169459948726 0.0009651805702387854 -0.001429440297008397)
(1.183343127088665 0.0006742114690651161 -0.001384357545824974)
(1.18145783719461 0.001154002805503058 -0.0005716012803577793)
(1.180824634941365 0.001733925923935959 -0.0007797351002876796)
(1.179958231188693 0.0009890129972352697 -0.0002118261168655616)
(1.1815175483082 0.000450382367888187 -0.0002783626840935984)
(1.180352417635554 0.001753133469930364 -0.0005509041284259253)
(1.181952214340661 0.001159812714690535 -0.0008104512996814575)
(1.181031575140526 0.0004561843962226766 -0.0002052524476251649)
(1.232450502352375 0.01807447853258445 -0.007001849064992752)
(1.224258997042953 0.01585826459015304 -0.008803790137885969)
(1.229404257654698 0.02987483642986354 -0.009386346172516763)
(1.219859250026221 0.02706232442832486 -0.005830850356717382)
(1.233682570614675 0.01830815406592388 -0.0100293072706223)
(1.223184845104689 0.01566789374166276 -0.006149677171002867)
(1.228280009274939 0.02966547814563778 -0.006632104439048032)
(1.245851041166289 0.007335579399789771 -0.008691446153377387)
(1.261493769898847 0.008579680380511649 -0.0136763974783532)
(1.259711340706877 0.008715662266228908 -0.0100000588958686)
(1.247339979409681 0.007204761215986063 -0.0118984917929988)
(1.234344947125428 0.006125138758812627 -0.007600346705700976)
(1.225817181250278 0.005134651943577765 -0.009108342926238609)
(1.235613243273148 0.006004527139849861 -0.01040099275242093)
(1.224717412947277 0.005245414781115344 -0.006650534952130076)