/*--------------------------------*- C++ -*----------------------------------*\
  =========                 |
  \\      /  F ield         | OpenFOAM: The Open Source CFD Toolbox
   \\    /   O peration     | Website:  https://openfoam.org
    \\  /    A nd           | Version:  7
     \\/     M anipulation  |
\*---------------------------------------------------------------------------*/
FoamFile
{
    version     2.0;
    format      ascii;
    class       volVectorField;
    location    "0";
    object      grad(Phi);
}
// * * * * * * * * * * * * * * * * * * * * * * * * * * * * * * * * * * * * * //

dimensions      [0 1 -1 0 0 0 0];

internalField   nonuniform List<vector> 
12671
(
(-1.000169994787554 -1.053044930976415e-07 -1.569992522596864e-07)
(-1.000171380979177 -4.848208686597303e-07 -6.878372912047114e-08)
(-1.000174182374731 -8.444783470839831e-07 1.130360444211532e-07)
(-1.000178457019472 -1.25855386512441e-06 3.995040726337877e-07)
(-1.00018429185597 -1.748159261266685e-06 8.078451630230968e-07)
(-1.000191802046839 -2.333345899288601e-06 1.362225983646567e-06)
(-1.000201129097323 -3.032146139253464e-06 2.094692241477133e-06)
(-1.000212436748601 -3.858989974070372e-06 3.046151356437693e-06)
(-1.000225903121962 -4.82222170253302e-06 4.267141848207803e-06)
(-1.000241706983508 -5.920398171293993e-06 5.817920582141052e-06)
(-1.000260005335269 -7.137073281704407e-06 7.76709113503966e-06)
(-1.000165774757906 -7.678046187729329e-08 -2.187314565964741e-07)
(-1.000166971258435 -3.540118610756294e-07 -1.417915102973492e-07)
(-1.000169383720739 -6.181962570600919e-07 1.626060046953506e-08)
(-1.000173050699758 -9.240641318797327e-07 2.639051388856522e-07)
(-1.000178028963285 -1.286996400201593e-06 6.141859164702704e-07)
(-1.000184391790903 -1.72076348053955e-06 1.085046088558492e-06)
(-1.000192225953997 -2.236576301287121e-06 1.699668969510671e-06)
(-1.0002016266498 -2.841717921642099e-06 2.486689202563664e-06)
(-1.000212689400489 -3.537625293120822e-06 3.48004864083863e-06)
(-1.000225497669639 -4.317311826165655e-06 4.718139133759447e-06)
(-1.000240104776855 -5.162108126330339e-06 6.241701917842578e-06)
(-1.000161880934332 -5.217929208157975e-08 -2.637281233971578e-07)
(-1.00016291232077 -2.414362381270762e-07 -1.980098438777853e-07)
(-1.000164987321551 -4.242925318587306e-07 -6.342173399096531e-08)
(-1.000168129852688 -6.392740735522204e-07 1.463904500436836e-07)
(-1.0001723743319 -8.976918491055269e-07 4.410682530818136e-07)
(-1.000177763626489 -1.209095594353902e-06 8.336191399758203e-07)
(-1.000184345796335 -1.580444342605261e-06 1.340419896222382e-06)
(-1.000192169167819 -2.015025314480703e-06 1.981034248207373e-06)
(-1.000201275161807 -2.511077130937374e-06 2.777677647593026e-06)
(-1.000211688233922 -3.06011442011135e-06 3.754092538947331e-06)
(-1.000223402341565 -3.645039652902548e-06 4.933524130281375e-06)
(-1.000158371920047 -3.140355459010758e-08 -2.88758040926593e-07)
(-1.000159262535557 -1.46551672047787e-07 -2.338353629578685e-07)
(-1.000161050656266 -2.614959526414272e-07 -1.216644270329401e-07)
(-1.000163749482414 -4.015566452686416e-07 5.240719831662609e-08)
(-1.000167377295534 -5.752238284861677e-07 2.953458506438528e-07)
(-1.000171955437752 -7.89292135858247e-07 6.163717713179782e-07)
(-1.000177505290993 -1.048182082047307e-06 1.02679767119892e-06)
(-1.000184043990565 -1.353129536293944e-06 1.53968554159146e-06)
(-1.000191578578327 -1.701243491997294e-06 2.169211003678292e-06)
(-1.000200098326238 -2.084470826238445e-06 2.929594506828959e-06)
(-1.000209565088947 -2.488572978645637e-06 3.833440107795989e-06)
(-1.000155294185884 -1.425649062698228e-08 -2.922639542218642e-07)
(-1.000156067506215 -6.837499516579046e-08 -2.474950798383842e-07)
(-1.000157617195612 -1.278270219672891e-07 -1.56281094726295e-07)
(-1.000159948805679 -2.073705716726852e-07 -1.529363751733231e-08)
(-1.00016306925683 -3.135856842112695e-07 1.803876252910225e-07)
(-1.000166985035011 -4.515204944932901e-07 4.371542479272792e-07)
(-1.00017169960612 -6.241550805363009e-07 7.626490549830204e-07)
(-1.000177209918534 -8.318115058413526e-07 1.165393608827763e-06)
(-1.000183501875466 -1.071528559798522e-06 1.654195735343988e-06)
(-1.000190544715623 -1.336448562275175e-06 2.237261181263125e-06)
(-1.000198284369765 -1.615305922353377e-06 2.920938249623768e-06)
(-1.000152683651234 -4.917127538939489e-10 -2.743389418912038e-07)
(-1.000153361946654 -5.712281855946059e-09 -2.389960536428976e-07)
(-1.000154718895003 -2.100160166605197e-08 -1.671335878430958e-07)
(-1.000156754730604 -5.286404239356135e-08 -5.643146471953575e-08)
(-1.000159468581773 -1.06617089989962e-07 9.649859904825425e-08)
(-1.000162856947327 -1.86235655105816e-07 2.959793376481455e-07)
(-1.000166911584162 -2.939341725432334e-07 5.470499856901242e-07)
(-1.00017161676218 -4.29741903062942e-07 8.551313723447778e-07)
(-1.000176945870145 -5.910949348320895e-07 1.225536026058045e-06)
(-1.000182857416381 -7.724875078772562e-07 1.662786459757422e-06)
(-1.000189290572546 -9.652494110667994e-07 2.169716455645915e-06)
(-1.000150567308166 1.014693221113462e-08 -2.366025613994525e-07)
(-1.000151171542269 4.265912152689372e-08 -2.099733671646921e-07)
(-1.000152378540677 6.125773084619137e-08 -1.559179212176569e-07)
(-1.000154184954373 6.567705046478511e-08 -7.287471040979817e-08)
(-1.000156584729044 5.141121824097195e-08 4.14114345804003e-08)
(-1.000159567851727 1.512201310007465e-08 1.897695880781996e-07)
(-1.000163118662712 -4.503333031479028e-08 3.754183298025669e-07)
(-1.000167213739576 -1.290938211745769e-07 6.016977939916695e-07)
(-1.00017181939165 -2.350286478354172e-07 8.716984173967124e-07)
(-1.000176888855185 -3.585474030591719e-07 1.187770912711306e-06)
(-1.000182359357565 -4.930334182168465e-07 1.550913423824643e-06)
(-1.00014896473863 1.789511183677454e-08 -1.82002322167191e-07)
(-1.000149514647084 7.785395261805669e-08 -1.634654189823957e-07)
(-1.000150611808815 1.209934356872293e-07 -1.25883996278679e-07)
(-1.000152250566296 1.515127903972804e-07 -6.82690076366243e-08)
(-1.000154421566877 1.654073620154639e-07 1.079441969722752e-08)
(-1.000157110731045 1.597000578028583e-07 1.130553535214552e-07)
(-1.000160297898076 1.327057550099989e-07 2.404607035270688e-07)
(-1.00016395518398 8.426247337384792e-08 3.94963876443591e-07)
(-1.000168045116481 1.590936669896382e-08 5.782692048597088e-07)
(-1.000172518654229 -6.901482264833436e-08 7.915070397033974e-07)
(-1.000177313253566 -1.653850805472414e-07 1.034842913297919e-06)
(-1.000147889420052 2.294622250539789e-08 -1.145623942033743e-07)
(-1.000148403718816 1.00781673339995e-07 -1.036402065433265e-07)
(-1.000149428957046 1.598540140257399e-07 -8.15154324385804e-08)
(-1.000150958113742 2.072368384398303e-07 -4.764394906189276e-08)
(-1.000152979908128 2.392114494404101e-07 -1.252863962062545e-09)
(-1.000155477922015 2.529906642095523e-07 5.860270528039913e-08)
(-1.000158429471681 2.46943354140276e-07 1.329568468425439e-07)
(-1.000161804278438 2.207792694913719e-07 2.228190657787107e-07)
(-1.000165563013819 1.756767712550944e-07 3.29025860373265e-07)
(-1.0001696558308 1.143325092518239e-07 4.52056521830715e-07)
(-1.000174021033496 4.091005101341961e-08 5.918173689387523e-07)
(-1.000147349750358 2.543662236395111e-08 -2.606476588588647e-08)
(-1.000147846431546 1.120811630173076e-07 -2.366024188452553e-08)
(-1.000148836107939 1.78989559507286e-07 -1.879153115106466e-08)
(-1.000150311128411 2.346418791765325e-07 -1.134310916077178e-08)
(-1.000152259327361 2.754485397271251e-07 -1.151504929739103e-09)
(-1.000154663225472 2.987029725647756e-07 1.198191447205567e-08)
(-1.000157499015242 3.027869855261059e-07 2.827250964373672e-08)
(-1.000160735386019 2.873339516735238e-07 4.7927240421555e-08)
(-1.000164332268573 2.533338747528278e-07 7.111230507132735e-08)
(-1.000168239610547 2.031620969373475e-07 9.791342198331326e-08)
(-1.000172396328268 1.405129943232283e-07 1.282899707079877e-07)
(-1.000280899000158 -8.438107447837511e-06 1.01876051048384e-05)
(-1.000256508788784 -6.040679599125244e-06 8.089757809844009e-06)
(-1.000236363647196 -4.240144267797445e-06 6.335436819470491e-06)
(-1.000219901836547 -2.893569283473993e-06 4.889337419083322e-06)
(-1.000206636086577 -1.893013752926999e-06 3.708056349959924e-06)
(-1.000196160566589 -1.15813543655768e-06 2.746359912027171e-06)
(-1.000188149321936 -6.300826544290179e-07 1.960053714592259e-06)
(-1.000182351212273 -2.667693714381724e-07 1.307038665167107e-06)
(-1.000178584081859 -3.939204890092709e-08 7.474063872228906e-07)
(-1.000176729613669 6.999352469478218e-08 1.620256613551446e-07)
(-1.000194081018723 -7.566833954134782e-07 2.405637744386358e-06)
(-1.000187473744712 -3.63334965135308e-07 1.601278260045792e-06)
(-1.000183198752122 -1.186485175460355e-07 9.147619987871987e-07)
(-1.000181099485542 -1.363586750572004e-09 1.982225266112221e-07)
(-1.000304089315112 -9.73064340927524e-06 1.311155442397078e-05)
(-1.000274393385441 -6.884102896735241e-06 1.026513943282524e-05)
(-1.000250273809851 -4.79584138521304e-06 7.950206009906279e-06)
(-1.000230841570274 -3.264197285424199e-06 6.083553427108331e-06)
(-1.000215366453877 -2.144549058698538e-06 4.58479808408643e-06)
(-1.000203264514373 -1.33327017518749e-06 3.380656048170897e-06)
(-1.000283432048942 -9.687852810552596e-06 9.498314645909413e-06)
(-1.000310145825834 -1.161787088570887e-05 1.264369243793837e-05)
(-1.000340406116207 -1.361786430447193e-05 1.656137357196384e-05)
(-1.000329281288934 -1.091299280809604e-05 1.656006389876051e-05)
(-1.000356375290151 -1.186088132333939e-05 2.057811360186268e-05)
(-1.000293470592628 -7.623011089500464e-06 1.276060069678792e-05)
(-1.00031361527707 -8.186220735216242e-06 1.558190173753149e-05)
(-1.000264877474993 -5.265150066833025e-06 9.762194815974951e-06)
(-1.000280053956301 -5.603394630259408e-06 1.176707260567984e-05)
(-1.000242167189219 -3.568464156261152e-06 7.399454470899466e-06)
(-1.000253772942219 -3.777294642369967e-06 8.829749855208057e-06)
(-1.000224294047565 -2.347945069950502e-06 5.536342042788267e-06)
(-1.000233330215023 -2.484012329931145e-06 6.555212727821986e-06)
(-1.00021045097618 -1.475349699545742e-06 4.060555391169021e-06)
(-1.00021764685655 -1.571533280346615e-06 4.779598298511029e-06)
(-1.000200026458612 -8.618891996258169e-07 2.878560897835096e-06)
(-1.000205925133496 -9.368963504153338e-07 3.373805910317489e-06)
(-1.000192569888754 -4.468926734650636e-07 1.911271982283483e-06)
(-1.000197588401265 -5.111337623239143e-07 2.233513201859348e-06)
(-1.000187765097562 -1.902843163806474e-07 1.090212128636993e-06)
(-1.00019223789477 -2.494251298663348e-07 1.271700790902231e-06)
(-1.000196505566046 -2.900849294106733e-07 1.453827759236546e-06)
(-1.00018541139238 -6.772692359927714e-08 2.360767793627669e-07)
(-1.00018962306155 -1.248754001485632e-07 2.751378558740117e-07)
(-1.000193630543889 -1.67604338442141e-07 3.142424718063349e-07)
(-1.000373985135835 -1.555452083890945e-05 2.135234484424459e-05)
(-1.000410897865699 -1.720610277298712e-05 2.72470206960717e-05)
(-1.000174468951287 -1.376911802353223e-07 -8.333278283520794e-08)
(-1.000176068665277 -6.336912754950663e-07 1.566423196895232e-08)
(-1.000179309376545 -1.103208623162719e-06 2.204333903054464e-07)
(-1.000184274382153 -1.643687861860318e-06 5.449774702319831e-07)
(-1.000191090273414 -2.28410123660769e-06 1.011445789100076e-06)
(-1.000199928353809 -3.053569383224103e-06 1.651538971603962e-06)
(-1.000211005437484 -3.980641865963636e-06 2.508400769326421e-06)
(-1.000224582743146 -5.091755014327432e-06 3.638935009831295e-06)
(-1.00024096080035 -6.408386276885032e-06 5.116336947344036e-06)
(-1.000260467142077 -7.942259301812913e-06 7.032348387292857e-06)
(-1.000384680643027 -1.235359978825664e-05 2.505119423086898e-05)
(-1.000413177393043 -1.253711868150103e-05 2.905897812178217e-05)
(-1.00044092398322 -1.222769270063766e-05 3.449543586763907e-05)
(-1.000466716227803 -1.067404800287205e-05 3.997293868371211e-05)
(-1.000487642359062 -7.426326634837366e-06 4.432704163074219e-05)
(-1.000334300147596 -8.475360499655067e-06 1.865126920441149e-05)
(-1.000354824008823 -8.437573280531993e-06 2.179755509319333e-05)
(-1.000374371316647 -7.976587561276622e-06 2.512830519374842e-05)
(-1.000391960331918 -6.906584764440796e-06 2.834782472619107e-05)
(-1.000406213909239 -5.175372092333842e-06 3.090518895348365e-05)
(-1.000295397041846 -5.750891095429042e-06 1.391266662061988e-05)
(-1.000310394268092 -5.656750780740175e-06 1.611880235083313e-05)
(-1.000324444638493 -5.269530819431269e-06 1.831494919757321e-05)
(-1.000336866696977 -4.537431554801611e-06 2.035603391086373e-05)
(-1.000346902185052 -3.46677703454681e-06 2.201190011956506e-05)
(-1.000265345431953 -3.852643920554472e-06 1.033597642948435e-05)
(-1.000276506507088 -3.761155891094412e-06 1.186347940806579e-05)
(-1.000286825807238 -3.475499090914462e-06 1.334536960421101e-05)
(-1.000295838949815 -2.979420781372539e-06 1.469254795498218e-05)
(-1.000303076859896 -2.283943777394215e-06 1.579453537046262e-05)
(-1.000242232046074 -2.528247980671773e-06 7.612800152555083e-06)
(-1.000250717914607 -2.459959496231986e-06 8.670367031826274e-06)
(-1.000258478024161 -2.264293168860723e-06 9.680099881561245e-06)
(-1.000265190585758 -1.935753634607602e-06 1.058547923243122e-05)
(-1.000270545162669 -1.483304258181431e-06 1.132517451801183e-05)
(-1.000224661485096 -1.605776711172607e-06 5.516978364989072e-06)
(-1.000231281457145 -1.565123211930356e-06 6.245690263352734e-06)
(-1.000237279218093 -1.441130819209586e-06 6.933385069160608e-06)
(-1.000242425394543 -1.231905599795004e-06 7.543911258253419e-06)
(-1.000246504836019 -9.440049153913388e-07 8.040394174911367e-06)
(-1.000211623875731 -9.708609117923096e-07 3.876799064801291e-06)
(-1.00021695639338 -9.553516419838328e-07 4.369266524549846e-06)
(-1.000221750109223 -8.852305735449654e-07 4.829947768466501e-06)
(-1.000225835285958 -7.598098958979984e-07 5.235866543191597e-06)
(-1.000229056024811 -5.83680207243723e-07 5.564311920443585e-06)
(-1.000202401763839 -5.483277070429914e-07 2.558443165765821e-06)
(-1.000206874961539 -5.526209259856367e-07 2.8743816266531e-06)
(-1.000210870996099 -5.205666968429007e-07 3.168038793443336e-06)
(-1.000214257793262 -4.518118119805129e-07 3.425360288865248e-06)
(-1.000216916074319 -3.495026693269675e-07 3.632706546316338e-06)
(-1.000200452131396 -3.07795847015043e-07 1.630105893067854e-06)
(-1.000203961858435 -2.999418847481744e-07 1.793262261650037e-06)
(-1.000206924819712 -2.662067884504876e-07 1.935708289198214e-06)
(-1.000209242978561 -2.088002768548611e-07 2.050159957145748e-06)
(-1.000197326855973 -1.920494765354109e-07 3.520049853784019e-07)
(-1.00020060620903 -1.959341148729264e-07 3.86883297417689e-07)
(-1.000203368933119 -1.789168240912913e-07 4.172788271621798e-07)
(-1.000205526753519 -1.427487353963533e-07 4.416652750500127e-07)
(-1.000855714919477 -1.164915634792681e-05 5.481351491799941e-05)
(-1.00045024011935 -1.748433746220688e-05 3.474538892282962e-05)
(-1.000461593581127 -4.883903393494117e-05 -7.164046001632584e-05)
(-1.000534648385266 -2.046425161374915e-05 4.697823783325286e-05)
(-1.000576044824958 -1.784367580217712e-05 5.716722204693199e-05)
(-1.000611268929966 -1.468107289050016e-05 6.53139689880874e-05)
(-1.000714083072244 -5.267017190117976e-05 0.0001188798939370578)
(-1.000747465698117 -4.901425353254202e-05 0.0001298318119383751)
(-1.000206589058211 -4.37893355353932e-07 1.791558628461362e-07)
(-1.000210115688655 -2.028598538442155e-06 2.478336115755048e-07)
(-1.000217384753112 -3.580667624902793e-06 3.937109390804599e-07)
(-1.000228852219434 -5.454611792868317e-06 6.354178005831903e-07)
(-1.000245267230742 -7.828191202055609e-06 1.005306345227207e-06)
(-1.000267763412722 -1.093930888577963e-05 1.556157605516966e-06)
(-1.00029800599575 -1.512264940835275e-05 2.37314622131082e-06)
(-1.000338425195269 -2.086923112404319e-05 3.595425010940056e-06)
(-1.000392590048673 -2.893018418338731e-05 5.456288064755462e-06)
(-1.00046582987873 -4.051335030361141e-05 8.359467722219136e-06)
(-1.000572811395006 -5.720043528807985e-05 1.337823339425709e-05)
(-1.000204088080923 -4.100942323226238e-07 2.218443874751741e-07)
(-1.000207438821235 -1.898400030425611e-06 3.117219186914919e-07)
(-1.000214335804615 -3.345733777901364e-06 5.022076436034001e-07)
(-1.000225190721149 -5.084541284089433e-06 8.166443829734367e-07)
(-1.000240676142798 -7.272438221211981e-06 1.295224461775553e-06)
(-1.000261801584535 -1.011646938524358e-05 2.002692643462729e-06)
(-1.000290033873924 -1.390138301617091e-05 3.04165931640474e-06)
(-1.000327482953357 -1.903306444396552e-05 4.575553644085564e-06)
(-1.000377185630493 -2.61087742123996e-05 6.868939881583417e-06)
(-1.000443529552331 -3.60511029706828e-05 1.0360219427243e-05)
(-1.000538460090916 -5.047590056774002e-05 1.622684996088903e-05)
(-1.000200905657061 -3.758350599902855e-07 2.399060714052472e-07)
(-1.000204039109927 -1.738222308880784e-06 3.456743236364697e-07)
(-1.000210477607685 -3.057712215467923e-06 5.692277305145998e-07)
(-1.000220580973069 -4.633272945475716e-06 9.365586950569322e-07)
(-1.000234932916028 -6.599784075120274e-06 1.49199681479067e-06)
(-1.000254400911486 -9.130501357770838e-06 2.305986802514632e-06)
(-1.00028022932913 -1.245790051485054e-05 3.488149607845079e-06)
(-1.000314180567891 -1.690526196725097e-05 5.208886323443652e-06)
(-1.000358748567049 -2.293892319368852e-05 7.735263574194096e-06)
(-1.000417489743119 -3.127232403245227e-05 1.149288665446056e-05)
(-1.000495584821454 -4.313617982676376e-05 1.71933780204346e-05)
(-1.000197157363137 -3.370637724486843e-07 2.317225477878239e-07)
(-1.000200044138039 -1.557316883490925e-06 3.476942369075658e-07)
(-1.000205963699334 -2.733746393215889e-06 5.9204543638879e-07)
(-1.000215220709346 -4.12881616108921e-06 9.914473114388189e-07)
(-1.00022830529115 -5.854101967059361e-06 1.590926266697087e-06)
(-1.000245937299627 -8.04902542100863e-06 2.461053438632382e-06)
(-1.000269133605419 -1.089480851235159e-05 3.709812880226023e-06)
(-1.000299307093395 -1.463426783596117e-05 5.501969854715388e-06)
(-1.000338410614654 -1.960034529813207e-05 8.091330127579756e-06)
(-1.000389144478205 -2.62551987227909e-05 1.187827246662574e-05)
(-1.000455238111458 -3.522618850086711e-05 1.752914880098166e-05)
(-1.000192971528088 -2.957593698837964e-07 1.985586203962132e-07)
(-1.000195594483019 -1.365030745686929e-06 3.192031174955925e-07)
(-1.000200960918081 -2.390967959703411e-06 5.725224573967184e-07)
(-1.000209320895781 -3.598717799799264e-06 9.841993210929886e-07)
(-1.000221072880177 -5.077692014812654e-06 1.597107105629682e-06)
(-1.000236794191522 -6.935940222330159e-06 2.47742128282732e-06)
(-1.000257285781951 -9.30837994105028e-06 3.724482803209289e-06)
(-1.000283635093999 -1.236726196106318e-05 5.486428348185319e-06)
(-1.000317301405858 -1.63348954884957e-05 7.985016991095939e-06)
(-1.000360226435069 -2.149744040642887e-05 1.155530836949875e-05)
(-1.000414962522054 -2.822254001608201e-05 1.670718826288313e-05)
(-1.000188481679406 -2.537616196895901e-07 1.442192051413858e-07)
(-1.000190835125319 -1.169997195168974e-06 2.645886674412359e-07)
(-1.000195638566153 -2.045000325204296e-06 5.164021796671412e-07)
(-1.000203091069773 -3.067639203990787e-06 9.23124643208957e-07)
(-1.000213506504777 -4.307550649548798e-06 1.523443003811222e-06)
(-1.000227332779873 -5.845672019944055e-06 2.376048164353039e-06)
(-1.000245178865589 -7.778336908945077e-06 3.56710661687362e-06)
(-1.00026785027253 -1.022157171279286e-05 5.221573694091886e-06)
(-1.000296392663558 -1.331471956177171e-05 7.520010413203138e-06)
(-1.000332140260803 -1.722152133415416e-05 1.072296519793429e-05)
(-1.000376758707054 -2.212720198564735e-05 1.520488149726845e-05)
(-1.000183819798223 -2.12647122105328e-07 7.444318254939339e-08)
(-1.000185907944857 -9.795555220709665e-07 1.904530407404704e-07)
(-1.000190159297409 -1.708912841943982e-06 4.32226566038353e-07)
(-1.0001967275747 -2.555711231935753e-06 8.202644710073901e-07)
(-1.000205852388747 -3.572878367913429e-06 1.38791725304574e-06)
(-1.000217870105009 -4.819288623086954e-06 2.184839482459532e-06)
(-1.000233228099274 -6.361228499535052e-06 3.282173699659137e-06)
(-1.000252501584524 -8.273183029150452e-06 4.779972463244807e-06)
(-1.000276410867881 -1.06370257166589e-05 6.817419890063224e-06)
(-1.000305834335631 -1.353810964078981e-05 9.58621219125506e-06)
(-1.000341808192789 -1.705676394817013e-05 1.334687145219046e-05)
(-1.000179110868399 -1.736595747481332e-07 -3.848368491670156e-09)
(-1.000180945837403 -7.994358336982689e-07 1.04708512837306e-07)
(-1.000184672362978 -1.392695629570696e-06 3.300895247540255e-07)
(-1.000190405503858 -2.07781670673313e-06 6.895263792468004e-07)
(-1.000198322432368 -2.894240816259088e-06 1.210663813102724e-06)
(-1.000208667515727 -3.883763557380182e-06 1.933862919817858e-06)
(-1.000221758161089 -5.090520607417487e-06 2.915496182625466e-06)
(-1.000237990103304 -6.560066729874334e-06 4.232360359128195e-06)
(-1.000257839690909 -8.336828414903937e-06 5.987219783144248e-06)
(-1.000281858898688 -1.045887507337955e-05 8.3151846458064e-06)
(-1.000310656112669 -1.294882247701584e-05 1.139010976560473e-05)
(-1.000690260182031 -5.247876272517427e-05 9.658392310541285e-06)
(-1.000713002654883 -0.0001190778388173144 3.935475821721214e-05)
(-1.000610236554281 -5.950399232000511e-05 2.831668483352426e-05)
(-1.000547102653877 -4.792669670956574e-05 2.691783925409254e-05)
(-1.000484781670488 -3.709082766163348e-05 2.420260569453851e-05)
(-1.000432262047849 -2.825921109013663e-05 2.150371450488363e-05)
(-1.000385498994443 -2.127085568231644e-05 1.844809585476131e-05)
(-1.000344852371676 -1.581013424095374e-05 1.542999539936817e-05)
(-1.000893404713157 -5.764609409126924e-05 1.274610535725995e-05)
(-1.000977555455308 -3.245609313751161e-05 1.27402470103162e-05)
(-1.000831191582546 -4.826680293854083e-05 2.317859458858595e-05)
(-1.000713709734953 -0.0001062169173078507 6.489848341336933e-05)
(-1.000581658219974 -4.902331499414125e-05 3.6866070018275e-05)
(-1.000500134244996 -3.567401028373031e-05 3.03506211063683e-05)
(-1.000437475925681 -2.61276508203769e-05 2.526897116100759e-05)
(-1.000384497177169 -1.893515813976986e-05 2.063657474987149e-05)
(-1.001152690353383 -4.062057956713327e-05 1.018451742287768e-05)
(-1.001584193009275 -6.499282606316265e-05 1.918063454162626e-05)
(-1.001045379712108 -3.365156859908446e-05 1.307578154707468e-05)
(-1.0017757179587 -7.202934756243993e-05 3.478584754993026e-05)
(-1.000923657419953 -3.846344625319089e-05 1.249309199750493e-05)
(-1.001475625575184 -5.102984581771353e-05 3.242664409902065e-05)
(-1.000776810166862 7.103412000857591e-05 6.660047655382022e-05)
(-1.001205905775705 -3.488509664618363e-05 2.739215732882363e-05)
(-1.000748358541192 -0.0001030491242688557 8.456811291472731e-05)
(-1.000982129559735 -2.543430677147938e-05 2.355545455927253e-05)
(-1.000591370572501 -4.562792461495456e-05 4.388359386885013e-05)
(-1.000760551697198 -3.209340405327605e-05 3.505101780829926e-05)
(-1.000498384284143 -3.174460196520873e-05 3.4277560712578e-05)
(-1.000578096216483 -4.02047802362505e-05 4.630005786581042e-05)
(-1.000429616898227 -2.226404652967581e-05 2.726289296343421e-05)
(-1.000480648991904 -2.608792448374105e-05 3.587758215497389e-05)
(-1.000833180591948 -3.202097798208904e-05 4.247948497335677e-05)
(-1.000992668693581 -1.938452218545107e-05 2.706723066587465e-05)
(-1.001174240326015 -2.223921770721644e-05 3.618462871329067e-05)
(-1.001371818647925 -2.362416749488973e-05 4.834181432833225e-05)
(-1.001698809425983 -1.90549777061389e-05 7.157592098174468e-05)
(-1.000709016466825 -6.729686973290378e-05 0.0001073652415993583)
(-1.000672679589493 -6.37452725848178e-05 0.0001003400351552517)
(-1.000811132396569 -6.560286579203859e-05 0.0001443274449469581)
(-1.000854775975606 -6.444374093525394e-05 0.0001605776633184564)
(-1.000959638956907 -8.397501648872987e-06 4.296685961261509e-05)
(-1.000509893410318 7.928541316350757e-05 8.536608005774773e-05)
(-1.000666980148804 2.204399006357251e-05 0.0006577657593651511)
(-1.006019541571413 -0.00346685903648696 0.0009124280838563689)
(-1.002278052812461 -0.0001091113580411 3.734588111579825e-05)
(-1.003455640256599 -0.0001928521510703183 7.825482060084979e-05)
(-1.004906757124999 -0.002367995858554841 0.001177125220001189)
(-1.009645065459828 -0.0005074672893405935 0.0002549779142342684)
(-1.023041610337134 -0.006976279485258539 0.007735189438262935)
(-1.001932356679337 -8.091467280212099e-05 4.061255400774431e-05)
(-1.002773380243431 -0.0001306423726198643 7.767305637107903e-05)
(-1.004128297607133 -0.0002142042013768789 0.0001559754246741741)
(-1.006327678824109 -0.0003471859592624442 0.000326003186059542)
(-1.014185327768157 -0.0003272587773395056 0.0006165174250771638)
(-1.001587172455507 -5.628937227595856e-05 3.716507142975434e-05)
(-1.002153313186487 -8.311205664398452e-05 6.489584637821473e-05)
(-1.00297177633699 -0.0001205901718160821 0.0001149286008190865)
(-1.004122687356871 -0.0001663270763686162 0.0002029559030231575)
(-1.006886713149049 -0.000237640054697225 0.0003768926533328029)
(-1.001282903431091 -3.771147042615965e-05 3.080946036213584e-05)
(-1.00165371384158 -5.140030466413341e-05 4.962446091405772e-05)
(-1.002142494486767 -6.758379445569668e-05 7.935891235108881e-05)
(-1.002757923585656 -8.298340832016278e-05 0.000123958879116193)
(-1.004001278320388 -8.421827679237335e-05 0.0002349754267763561)
(-1.001033890363832 -2.504096579728565e-05 2.437029858773087e-05)
(-1.001055337627079 -2.175177642633049e-05 2.842495062116003e-05)
(-1.001259815305508 -2.543166630705073e-05 3.982348285031309e-05)
(-1.001485357271876 -2.739844468088931e-05 5.413718385407232e-05)
(-1.001865883854629 -2.256065070692068e-05 8.192100767574841e-05)
(-1.085344750504915 -0.002014858122236175 0.003559178108261928)
(-1.024570360007529 -0.001267684282228986 0.0008437067429865119)
(-1.036230488923736 -0.001541833758612911 0.002034877468454967)
(-1.000210836250426 -1.323822609653002e-07 2.130342164932898e-06)
(-1.000207007953611 -9.118920729633863e-08 4.58731863525794e-07)
(-1.000208313416362 -4.575145826357592e-07 1.163292145255183e-07)
(-1.000211963981757 -2.120617787954018e-06 1.594549154382169e-07)
(-1.000219495733631 -3.747160259373606e-06 2.51201423719598e-07)
(-1.000231397104083 -5.717979383312838e-06 4.0362631847161e-07)
(-1.000248473818697 -8.22606159060767e-06 6.378027930568286e-07)
(-1.000271952294181 -1.153316068547305e-05 9.884385507270139e-07)
(-1.000303648524762 -1.601348140035912e-05 1.512275234429563e-06)
(-1.000346241033543 -2.222631849610458e-05 2.303539643929536e-06)
(-1.000403717864657 -3.104296130622438e-05 3.523025419732944e-06)
(-1.000482128202481 -4.387569752255212e-05 5.45364095345521e-06)
(-1.000597871456871 -6.249359327910878e-05 8.874438952052347e-06)
(-1.000707712507952 -5.411923801189968e-05 5.371396332137161e-06)
(-1.000872234297419 -2.872457429061317e-05 -3.109970311388035e-06)
(-1.001175274985246 -4.207130832442868e-05 9.484037508334239e-06)
(-1.001625166440379 -6.81832416140553e-05 1.776093724394419e-05)
(-1.002356660245681 -0.0001160044606075337 3.50525320692477e-05)
(-1.003649083835149 -0.001691607385512994 0.0003638191791319587)
(-1.041429145220387 -0.002464208632392861 0.001906617901798498)
(-1.063283374194488 -0.001966868191234805 0.002131321964591161)
(-1.068916846816411 -0.0183224459978734 0.02376778445489421)
(-1.047712294990826 -0.02870592578826044 0.03120132040152136)
(-1.069909968374313 -0.03004077352483471 0.05085173657417395)
(-1.093323039845317 -0.002333121772858512 0.004023276658878293)
(-1.064337874925673 -0.03267117395213923 0.05502328304993484)
(-1.000503354665931 -5.121792585267432e-06 4.571000564330686e-05)
(-1.000415823851519 -3.303678919832177e-06 3.207526279818868e-05)
(-1.000353896519085 -2.190705588685861e-06 2.307796470389316e-05)
(-1.000308136966301 -1.43826466898653e-06 1.655974818928478e-05)
(-1.000274276523735 -9.323268967110665e-07 1.184686995424772e-05)
(-1.000249335633126 -5.928487811351818e-07 8.390798726894785e-06)
(-1.000231282171197 -3.6677066964722e-07 5.795518657590119e-06)
(-1.000218747456003 -2.202419883220934e-07 3.778264499196831e-06)
(-1.000879452244299 -8.256053380092969e-06 5.756938399072333e-05)
(-1.000665145886982 -2.132528593929211e-06 0.0001240878493394991)
(-1.001736929947615 -1.748228012410376e-05 7.449764840466435e-05)
(-1.000974915653179 -4.212582411127427e-06 4.313069448445652e-05)
(-1.040072740460145 -0.009109662972428377 0.01999588222907718)
(-1.014841302579155 -0.0003283625235659181 0.0006637660391085498)
(-1.007325381954851 -0.0002033747302400448 0.0005260679096097679)
(-1.00416611803722 -7.926571316249819e-05 0.0002515063522673186)
(-1.001910775016586 -2.074626820037575e-05 8.54678590442426e-05)
(-1.000847892033891 -0.0002020837636279775 -5.430708668835535e-05)
(-1.001070984220504 -3.798608786417973e-05 8.658732915833534e-06)
(-1.001032463063216 -0.0002671128074470934 6.292155076299258e-05)
(-1.001003255244042 -3.341184449381709e-05 1.112501594438235e-05)
(-1.000966746781028 -0.0002285235928117365 7.979878615617831e-05)
(-1.000860363805871 -5.310472143841464e-05 1.569591845240373e-05)
(-1.00084240928271 -0.0001610405779252182 4.887295193799545e-05)
(-1.001108041171107 -0.0002928114169705665 7.482625443214457e-05)
(-1.001457349387121 -5.747639507784773e-05 1.637452731191989e-05)
(-1.00138946152957 -0.0004068420180733677 0.0001165020561293569)
(-1.001074388909832 -3.519600777106374e-05 1.239393907514258e-05)
(-1.001033653389046 -0.000254404085479311 9.087979145875805e-05)
(-1.001337842889109 -4.880020645944099e-05 1.882097232181466e-05)
(-1.001279450531325 -0.0003485490265485983 0.0001350740523510466)
(-1.001505566286034 -0.0004568838488059192 0.000135319938074279)
(-1.002070623612852 -9.543877833907967e-05 3.142609892165752e-05)
(-1.00194519499679 -0.0006584776300167963 0.0002170492418830014)
(-1.001851904486326 -7.781712185612058e-05 3.460130648592527e-05)
(-1.001748855081456 -0.0005411400761504876 0.0002408934848601244)