/*--------------------------------*- C++ -*----------------------------------*\
  =========                 |
  \\      /  F ield         | OpenFOAM: The Open Source CFD Toolbox
   \\    /   O peration     | Website:  https://openfoam.org
    \\  /    A nd           | Version:  7
     \\/     M anipulation  |
\*---------------------------------------------------------------------------*/
FoamFile
{
    version     2.0;
    format      ascii;
    class       volScalarField;
    location    "0";
    object      mag(grad(Phi));
}
// * * * * * * * * * * * * * * * * * * * * * * * * * * * * * * * * * * * * * //

dimensions      [0 1 -1 0 0 0 0];

internalField   nonuniform List<scalar> 
12671
(
1.000169994787572
1.000171380979297
1.000174182375094
1.000178457020344
1.000184291857824
1.000191802050488
1.000201129104112
1.000212436760683
1.000225903142688
1.000241707017949
1.000260005390888
1.000165774757933
1.000166971258508
1.00016938372093
1.000173050700219
1.000178028964302
1.000184391792972
1.000192225957942
1.000201626656928
1.0002126894128
1.000225497690084
1.00024010480965
1.000161880934368
1.000162912320819
1.000164987321643
1.000168129852903
1.0001723743324
1.000177763627567
1.000184345798482
1.000192169171811
1.000201275168816
1.000211688245649
1.000223402360373
1.000158371920089
1.000159262535595
1.000161050656307
1.000163749482496
1.000167377295743
1.000171955438254
1.000177505292069
1.000184043992666
1.000191578582126
1.000200098332701
1.000209565099389
1.000155294185927
1.000156067506248
1.000157617195632
1.000159948805701
1.000163069256896
1.000166985035209
1.000171699606605
1.000177209919559
1.000183501877407
1.000190544719018
1.000198284375335
1.000152683651271
1.000153361946683
1.000154718895018
1.000156754730607
1.000159468581783
1.000162856947388
1.000166911584355
1.000171616762638
1.000176945871071
1.000182857418061
1.000189290575365
1.000150567308194
1.000151171542292
1.000152378540691
1.000154184954378
1.000156584729046
1.000159567851745
1.000163118662783
1.000167213739765
1.000171819392057
1.000176888855955
1.000182359358889
1.000148964738647
1.000149514647101
1.000150611808831
1.00015225056631
1.000154421566891
1.000157110731064
1.000160297898114
1.000163955184061
1.000168045116649
1.000172518654544
1.000177313254115
1.000147889420059
1.000148403718826
1.000149428957062
1.000150958113764
1.000152979908157
1.000155477922049
1.00015842947172
1.000161804278487
1.000165563013889
1.000169655830908
1.000174021033672
1.000147349750359
1.000147846431553
1.000148836107955
1.000150311128439
1.000152259327399
1.000154663225517
1.000157499015288
1.000160735386062
1.000164332268607
1.000168239610572
1.000172396328286
1.000280899087628
1.000256508839738
1.000236363676247
1.000219901852683
1.000206636095242
1.000196160571029
1.000188149324055
1.000182351213163
1.000178584082139
1.000176729613685
1.000194081021903
1.00018747374606
1.000183198752548
1.000181099485562
1.00030408944837
1.000274393461802
1.000250273852943
1.000230841594101
1.000215366466684
1.000203264520975
1.000283432140952
1.000310145973207
1.000340406345991
1.000329281485534
1.00035637557212
1.000293470703067
1.000313615431927
1.000264877536488
1.000280054041208
1.000242167222954
1.000253772988324
1.000224294065643
1.000233330239588
1.00021045098551
1.000217646869205
1.000200026463125
1.000205925139626
1.00019256989068
1.00019758840389
1.000187765098174
1.000192237895609
1.000196505567144
1.00018541139241
1.000189623061595
1.000193630543952
1.000373985484638
1.000410898384711
1.0001744689513
1.000176068665478
1.000179309377178
1.000184274383653
1.000191090276534
1.000199928359834
1.000211005448551
1.000224582762726
1.000240960833964
1.00026046719833
1.000384681032964
1.000413177893638
1.00044092465265
1.000466717083289
1.000487643368588
1.000334300357377
1.000354824281889
1.000374371664046
1.000391960757401
1.000406214399997
1.00029539715513
1.000310394413954
1.000324444820037
1.000336866914382
1.000346902433237
1.000265345492775
1.00027650658451
1.0002868259023
1.000295839062156
1.000303076987199
1.000242232078239
1.00025071795521
1.000258478073563
1.000265190643642
1.000270545227882
1.0002246615016
1.00023128147787
1.000237279243162
1.00024242542375
1.00024650486878
1.000211623883716
1.00021695640338
1.000221750121276
1.00022583529995
1.000229056040459
1.000202401767262
1.000206874965822
1.000210871001251
1.000214257799229
1.000216916080977
1.000200452132772
1.000203961860087
1.000206924821621
1.000209242980684
1.000197326856053
1.000200606209124
1.000203368933222
1.000205526753627
1.000855716488247
1.000450240875481
1.000461597338196
1.000534649697435
1.000576046617169
1.000611271169322
1.0007140915195
1.000747475320273
1.000206589058323
1.000210115690743
1.000217384759598
1.000228852234509
1.00024526726188
1.000267763473751
1.000298006112878
1.000338425419419
1.000392590481866
1.000465830733938
1.000572813119451
1.000204088081032
1.000207438823085
1.000214335810337
1.000225190734406
1.000240676170074
1.000261801637698
1.000290033975145
1.000327483144891
1.000377185994781
1.000443530255527
1.000538461495723
1.000200905657161
1.000204039111497
1.000210477612521
1.000220580984239
1.000234932938914
1.000254400955816
1.00028022941279
1.000314180724302
1.000358748859958
1.000417490297909
1.000495585899091
1.000197157363221
1.000200044139312
1.000205963703245
1.000215220718359
1.000228305309547
1.00024593733504
1.000269133671632
1.000299307215575
1.000338410839399
1.000389144893258
1.000455238885184
1.000192971528151
1.000195594484001
1.000200960921103
1.000209320902739
1.00022107289434
1.000236794218638
1.000257285832197
1.000283635185498
1.0003173015711
1.000360226732794
1.000414963059651
1.000188481679449
1.000190835126039
1.000195638568377
1.000203091074903
1.000213506515213
1.000227332799778
1.000245178902194
1.000267850338385
1.000296392780439
1.000332140466516
1.000376759067319
1.000183819798248
1.000185907945355
1.000190159298962
1.000196727578302
1.000205852396091
1.000217870119005
1.000233228124886
1.000252501630159
1.000276410947671
1.000305834473177
1.000341808427245
1.000179110868414
1.000180945837728
1.000184672364002
1.000190405506254
1.000198322437289
1.000208667525136
1.000221758178292
1.00023799013377
1.00025783974357
1.000281858987928
1.000310656261326
1.000690261604701
1.000713010513444
1.000610238724237
1.00054710416382
1.000484782650761
1.000432262678073
1.000385499390681
1.000344852615615
1.000893406454369
1.000977556062571
1.000831193014822
1.000713717476351
1.000581660100077
1.000500135341345
1.000437476585979
1.000384497569223
1.001152691229251
1.001584195301626
1.00104538036313
1.00177572115217
1.000923658236955
1.001475627400257
1.000776814903917
1.00120590675817
1.000748367419992
1.000982130160027
1.000591372575155
1.00076055282562
1.000498385374935
1.000578098095456
1.000429617517437
1.000480649975321
1.000833182005695
1.000992669247229
1.001174241226912
1.001371820093459
1.001698812164433
1.000709024489219
1.000672686650534
1.000811144953458
1.000854790931912
1.000959639914323
1.000509900193631
1.000667196575294
1.006025928920395
1.002278059447348
1.003455661839899
1.004910236560287
1.009645225187624
1.023094637906142
1.001932360769715
1.002773391761753
1.004128332568687
1.006327791519089
1.014185567956992
1.00158717472677
1.002153318734084
1.002971790171164
1.004122721643415
1.006886811730576
1.001282904615261
1.001653716389655
1.002142499907855
1.00275793468108
1.004001309349317
1.001033890973682
1.001055338266962
1.001259816420443
1.001485359109901
1.001865887457923
1.085352456509237
1.024571491634657
1.036233633961365
1.000210836252704
1.00020700795372
1.000208313416473
1.000211963984018
1.000219495740682
1.000231397120509
1.000248473852726
1.000271952361158
1.000303648654082
1.000346241283114
1.000403718352499
1.000482129179419
1.000597873447783
1.000707713985778
1.000872234714441
1.001175275914125
1.001625168918554
1.002356667571275
1.003650575341376
1.041433805880371
1.063287329437446
1.069338040571445
1.048569790545724
1.07153893424985
1.093332931759071
1.066259855422824
1.000503355723218
1.000415824371171
1.000353896787685
1.000308137104406
1.000274276594324
1.000249335668496
1.000231282188054
1.000218747463163
1.000879453934011
1.000665153583034
1.001736932870304
1.000974916591266
1.040304823940496
1.014841572772744
1.007325539852541
1.004166152662217
1.001910778876791
1.000847913908896
1.00107098497865
1.001032500678565
1.00100325586348
1.000966776048173
1.000860365337789
1.000842423432107
1.001108086789306
1.001457351170353
1.001389550951895
1.001074389605269
1.001033689841654
1.001337844255126
1.001279520307759
1.001505679642531
1.002070628650501
1.00194543488172
1.001851908106001
1.001749030206299
1.001445976640343
1.001379189687714
1.001006052272072
1.000954804356041
1.000932014387257
1.001294920813784
1.001239847311746
1.001163037306623
1.001117454298165
1.001680189179743
1.00154874078002
1.001473744153016
1.001396681933223
1.001333886040279
1.001246174821445
1.001194890422803
1.00089691598595
1.000874328178973
1.000855146044823
1.001119056141218
1.001076306101039
1.000988863438007
1.000964786679277
1.001406818137681
1.001269497337195
1.001217207121899
1.001196407392271
1.001148716594919
1.001051352641367
1.001018730129751
1.001158394558035
1.001033491452707
1.000994847805467
1.001004275967529
1.000980379740549
1.000887732453261
1.000838998959871
1.000955388396351
1.001126907733274
1.001085451432416
1.000873528316628
1.000855457359546
1.000918327046105
1.000901522191424
1.001129559600214
1.001321764456689
1.00126600713047
1.000955374198048
1.000937820294461
1.001060184562456
1.001024699265757
1.001312212877261
1.001520229910979
1.001448889428916
1.001094248780352
1.001055285470452
1.001192276436745
1.001145537040033
1.00130678144665
1.001251889429133
1.001612469229074
1.001567835205631
1.001492595487768
1.001223125084674
1.001174257860533
1.000855794436058
1.000890499937131
1.000872139347341
1.001018764439537
1.00098647699702
1.001104956248523
1.001063844926036
1.000920733135514
1.001204580931469
1.001156665994315
1.000877131790366
1.000909015809318
1.001131858146358
1.00108900696673
1.007012397902388
1.005212405023468
1.005964928151235
1.009377765874683
1.007748482815266
1.021718024158269
1.020041934665422
1.010137516235751
1.008047405061896
1.020401746851768
1.016926853908643
1.002130426674996
1.003096642690374
1.002846959913198
1.002021056807636
1.001901346111077
1.002668032099355
1.002475101184311
1.003154884669366
1.004375290389778
1.004920384840845
1.002942374781462
1.002714428547269
1.004010492714601
1.00362580346775
1.005583241967612
1.008477056861657
1.007108724616174
1.004469964766447
1.004008585972593
1.006275770036548
1.005465391899631
1.007698297031792
1.015616495958213
1.014068293218493
1.0070534558793
1.006072371965106
1.010086150776975
1.008061995722666
1.015569238590999
1.011556024079419
1.0215352442401
1.021367072184209
1.017454084630743
1.010681667017497
1.008466178484802
1.001821722213866
1.001670654856698
1.001585042806872
1.002525000218135
1.002349663660866
1.002117153100162
1.001988131434486
1.0025676050266
1.003725526759425
1.003386416123166
1.002297952074454
1.002149444220114
1.002960874839876
1.002732271734308
1.003725452196283
1.005676488818745
1.004992358631833
1.003228469972477
1.002963930114119
1.004197324190689
1.003787016319057
1.005509942282298
1.009401242294573
1.007524835127144
1.004580357090958
1.004106196863768
1.005911524757516
1.005191719801587
1.010735688393919
1.007842231868515
1.0068396814251
1.009928767318422
1.007966435048952
1.006409003312537
1.005588952691197
1.001508992030739
1.001354075904687
1.001295248665071
1.001991425916114
1.00187549671374
1.001651369965594
1.001567944035987
1.002020702493128
1.002738814213076
1.002538935658521
1.001766765965615
1.001672955363231
1.002168718302882
1.002035226289485
1.002742318142135
1.003800762895673
1.003454143130178
1.002322579072829
1.002172531369383
1.002845850608575
1.002634284391476
1.003725993142775
1.005219481183929
1.004634999308069
1.003040009407874
1.002803694223789
1.003669465737412
1.00334642259482
1.005960460977973
1.004542466084463
1.004084663593469
1.005621467161828
1.004962120886733
1.003889339694916
1.003533832281574
1.001229520860026
1.001090762869801
1.001049279412748
1.001550758501393
1.001476104788716
1.001285729753095
1.00123209957868
1.001570212219786
1.002008320070924
1.001891519949342
1.001358843868911
1.001299860173732
1.001603226036685
1.001524493173354
1.0020120256514
1.002592952355941
1.002412582667252
1.001692899774529
1.001606362337168
1.001983966693088
1.001870276827223
1.002557840770013
1.003285571832458
1.003017627980793
1.002087060668468
1.00196311716684
1.002405685739095
1.002248084242869
1.003630981610605
1.00281473807076
1.002609912802738
1.003467475923217
1.003174569751807
1.002511979184834
1.002342521225994
1.000994852943063
1.000886159849073
1.000827566269832
1.001009175782291
1.000970668121579
1.001208900040251
1.001160697411964
1.001017461013784
1.00120621136378
1.001158994232648
1.001274150164743
1.001221551211249
1.001490403925837
1.001421200926185
1.001208714191723
1.001427877525785
1.001363890457768
1.001569044697614
1.001493328993001
1.001821834866451
1.001723784264724
1.001416777994486
1.001657039865482
1.001574156974931
1.001910515847476
1.00180414501366
1.002181985317768
1.002048665184885
1.001764375486567
1.002525223865051
1.002354856049784
1.001712477719326
1.001624780949302
1.002271720446896
1.00212902289661
1.050024403992913
1.043320905519678
1.048026142641934
1.039382632990833
1.037462378743031
1.059048877793175
1.048005373318226
1.022952561116061
1.033698069016467
1.025182679469955
1.019622563410662
1.019724080342767
1.025555812547726
1.023285404923913
1.035909684099087
1.037567901813714
1.030363419214017
1.052854457531621
1.044838483968735
1.027919527248435
1.025292234611608
0.9999039228186782
1.00109066763634
1.001051161994696
1.000917394218229
1.000885578089002
1.001138637923457
1.001094471905207
1.001129470507009
1.001492542337532
1.001421844177028
1.001230098298302
1.001179787321011
1.001577749126386
1.001499698947636
1.001543031509751
1.002136938671964
1.002004627554794
1.002300935921814
1.002150330273243
1.001724791868115
1.001633518850887
1.002200019525749
1.003257904155945
1.003232038591388
1.002963210073738
1.002552452784621
1.0023724056058
1.00357825392952
1.005277233154753
1.00605043524581
1.00361994557041
1.003294162575117
1.004622317521929
1.005226149946651
1.004044653355627
1.026391478424733
1.023992939134361
1.036879771716694
1.031741790842808
1.10396819059129
1.09777943716639
1.083334113323888
1.07913522563226
1.040496709191881
1.05958997319288
1.050647484820979
1.093837969713926
1.077786762163639
1.065189182537423
1.076437684444459
1.075300599187079
1.071658703816938
1.060424216108327
1.095756500249038
1.090331185307716
1.077801646259431
1.074025492049903
1.058755251741133
1.051353465717568
1.056951529573462
1.086873757447504
1.072747300846585
1.061441985630363
1.07161917785281
1.051535340633986
1.071468936321916
1.060682748886497
1.053466688148958
1.049549610341308
1.041684949241547
1.04558683911028
1.049430369158741
1.067162453464495
1.057354654359154
1.046268668089653
1.137889382471969
1.127824310647523
1.111857973939442
1.104820509434852
1.104473482537697
1.121512167952414
1.100355973270272
1.082321524550881
1.084900444344312
1.082933960488311
1.110627259704338
1.073107362063381
1.065552205276004
1.092516779509543
1.076785786990798
1.088179363172873
1.124394679264501
1.115945985939122
1.079643636989017
1.07565249746212
1.102498101191312
1.096394388080613
1.093425162492651
1.071200405862862
1.07446052449124
1.053324229471228
1.075285546633287
1.053222921497389
1.068672984425095
1.061349818629867
1.060995221539824
1.051328003967835
1.051178113581694
1.070612440162942
1.001330762130425
1.001274143068497
1.001647263280774
1.000929569236706
1.001225304511733
1.001175990930189
1.032832730765076
1.037845402835974
1.016333935090753
1.012014293715956
1.029513458017033
1.011142804134075
1.008094286255161
1.005904317222944
1.006290405621298
1.004746349632737
1.004255046504045
1.003770784976924
1.002905720128554
1.002689829987408
1.001805093653146
1.002600832048085
1.002421890257227
1.050455511141532
1.042608356302602
1.055913910528249
1.146978004164181
1.135823024326238
1.110018940515823
1.128848272186538
1.074556328912791
1.088905037154688
1.086760780456327
1.116866126435569
1.097994581818109
1.092436812289058
1.13197529241849
1.122694718012818
1.039305624648792
1.045655993445116
1.034322026039016
1.043245417349287
1.021573765667038
1.023564894017776
1.018666153533158
1.021879456929912
1.032943671035652
1.02812894706975
1.040426601865825
1.023672835103063
1.022505477849469
1.029340192565191
1.036814430925925
1.045178847132286
1.068906653051072
1.040314186513935
1.052621791480943
1.000742641249121
1.000727114631049
1.000837285326237
1.000812674261524
1.000829394895158
1.000717659352471
1.000726407534875
1.000781231258402
1.000797836802165
1.000760812247722
1.00067318660039
1.00066223544331
1.000689762271899
1.000701520137253
1.000677299796932
1.00078063504601
1.000766119571681
1.0007545812274
1.000740782936979
1.000669464765342
1.000657760006315
1.000885079276101
1.000884595672607
1.000864171577881
1.000822513468766
1.000806549437769
1.000778518063929
1.000764015320198
1.000814959580314
1.000775838394552
1.000761794670039
1.000736972985084
1.000723045901901
1.000696087933467
1.000685390687383
1.001206651342
1.0011449551556
1.001243280361591
1.001128678232727
1.001121270374892
1.001234497922809
1.001215114284855
1.001660974823081
1.001570760230397
1.001726948433956
1.001540290784764
1.00152750747332
1.001711313563161
1.00167579722838
1.001079577466238
1.001038849895906
1.001015616472155
1.001120288725707
1.001009412047622
1.001112882836269
1.001086627325285
1.001556199082931
1.00175936176231
1.001699339806551
1.001635492262666
1.001621327510656
1.001684209262556
1.001569359943578
1.000944244337614
1.000921147586453
1.000891238249571
1.000983962712731
1.000890797900041
1.000979225331882
1.000947684690898
1.001301775314231
1.001463874999479
1.001404534247554
1.001373919134961
1.001363569990198
1.001393801742068
1.001311234403218
1.000789466700483
1.00074824189101
1.000735005672548
1.000951753577672
1.000992758948353
1.000803497498972
1.000818556066257
1.001073497063574
1.001197965466321
1.001145186531013
1.001134187546222
1.001127513736735
1.001137980434899
1.001079360351065
1.000901153421148
1.000846548371495
1.000826665424664
1.000751845653362
1.000766091393668
1.000846181334905
1.00082772630715
1.0007465567809
1.000689832577755
1.000677749116366
1.000686925860061
1.000699010898437
1.000637430371865
1.00063142775207
1.000781435494803
1.00074509745204
1.000732170059784
1.000951961318923
1.000938260984329
1.000804214048194
1.0007607026904
1.000966451388255
1.000986418685704
1.001036143047715
1.000933054197019
1.000927004180435
1.001029681506732
1.000972964607361
1.001131798641504
1.001166687953754
1.001222693286786
1.001095792797851
1.001089369875301
1.001214551836706
1.001138715528486
1.001303787563961
1.001361670724558
1.001421819175765
1.001269658826369
1.001260872135881
1.001410986451249
1.001313178200347
1.001504374797804
1.001551748882477
1.001684043813061
1.001657602054539
1.001643443100837
1.001539127823385
1.001516505645213
1.000717903662018
1.000732896994297
1.000771318000002
1.000756843687165
1.000799063142687
1.000811724244059
1.000688290748869
1.000763759804026
1.000748769518599
1.000824742868809
1.000897273718124
1.000971850778683
1.00098809456676
1.00093633792589
1.001009046998183
1.000955312290617
1.001032867236407
1.000942733730232
1.000938107861443
1.00102675111167
1.001014996002955
1.007166652413581
1.006500658510214
1.006934665136078
1.005778144851367
1.007582234252224
1.006218987039963
1.006602522037883
1.014883153212067
1.012109500144526
1.011454920994165
1.015918724875
1.002388119060283
1.002252699759657
1.002514634377391
1.002195063683657
1.002171311245839
1.002484533207316
1.002416177726593
1.003608222854393
1.003403593542379
1.003871543564261
1.003285969156058
1.003238280896642
1.003808280602976
1.003665748656752
1.005511283475492
1.005236451409859
1.00552764350729
1.00460508429973
1.005932002308932
1.004894912593188
1.005155793938265
1.009680152099026
1.009169145595896
1.012142389608897
1.008257968488585
1.011488583830165
1.007206072014684
1.010170385346658
1.028956608544309
1.03225687096959
1.025320347001215
1.017676947767131
1.023194998756878
1.021312105399508
1.019046189702887
1.001984623916737
1.001913398723843
1.001843867811801
1.002107665123687
1.001826415989199
1.002085608544438
1.00200481640101
1.002822242697996
1.002737936055145
1.003053263845608
1.002608813505547
1.003011438816299
1.00257695812648
1.002859544626388
1.00412890682751
1.004058319381618
1.004583427082443
1.003806816666048
1.004499821796314
1.003745987310998
1.004200808073144
1.006138080033611
1.006183819083429
1.007057509208874
1.005676902130012
1.00688409549388
1.00555741559759
1.006279690989112
1.009188781627828
1.013368979288471
1.010879992346837
1.012262180378435
1.011616056072414
1.010362794779806
1.009616719142678
1.001603824582875
1.001573807494517
1.001506391873121
1.001709576051361
1.001494223732679
1.001694346631344
1.001617625849901
1.00215123816829
1.002130565816852
1.002330934927732
1.002016493790645
1.002304844801292
1.001996221306081
1.002174333806273
1.002916304930028
1.002932219351619
1.003225800513126
1.002735964940375
1.003180297836624
1.002701693531812
1.002955396202673
1.003939815903221
1.004053833770035
1.004467419750172
1.003717271512222
1.004388605183117
1.003659632387737
1.004005146970584
1.00550501895018
1.006711350009133
1.005950473454091
1.006454441870384
1.006308648135894
1.005824644735849
1.005619754910963
1.001280961643338
1.001273840496019
1.001215230804698
1.001365746397041
1.001206988837786
1.001355554830208
1.001290187098862
1.001632091335376
1.001639429994606
1.001764110409964
1.001548258623121
1.00174812143042
1.001535544377227
1.001646242293642
1.002080298193235
1.002120122615084
1.002284790076782
1.001978395149708
1.002259800628905
1.001958930006558
1.002101903164872
1.002620490365951
1.002723494057496
1.002929171858904
1.002507581380973
1.002891036804069
1.002478368475223
1.002652627839687
1.00335162965203
1.003937130399118
1.003542249442823
1.003827965001913
1.003768305566137
1.003490078921172
1.003400383527095
1.001023321576279
1.001027459951266
1.000980588343582
1.001088806013569
1.000974929751247
1.001081743332444
1.001029824512401
1.001169382700862
1.001048649688057
1.001103820365355
1.001122808387819
1.001096772988852
1.001115501473781
1.001177209729264
1.001405332062374
1.001251118936238
1.001314802082582
1.001353511623067
1.001305408237605
1.001343575946934
1.00141609828087
1.001663939673386
1.001473652210898
1.001542996894323
1.001611792521297
1.001530477274391
1.001598267402639
1.001678452281318
1.001979675185896
1.001848512055536
1.002056400982669
1.001817480442028
1.00180086770672
1.00203584609847
1.00199926917033
1.080938251579589
1.073490523814997
1.0700081939611
1.055944859501509
1.066339655195605
1.063490432381651
1.058381557025017
1.024791286025217
1.02420318277444
1.027246907771279
1.022828120430302
1.022502535354319
1.026808611954944
1.025175290054599
1.036473654313436
1.035532125224446
1.04082904120287
1.033262739825164
1.032653321160826
1.039967524820276
1.037212693800679
1.000694519330939
1.000807333689847
1.000758786176846
1.000825720616202
1.000809033042872
1.000721836502246
1.00070809428997
1.000955091420291
1.000856913063818
1.000946548030295
1.000898042766871
1.000940279843737
1.000894137515183
1.00096116051023
1.001283881395184
1.001167299893794
1.001269438473003
1.001195944748966
1.00126035098315
1.001187712589758
1.001293273173173
1.001801611881265
1.001611112281014
1.001774838591699
1.001662633571418
1.001758426169088
1.001647996076145
1.001818752126406
1.002661513674902
1.00232974474917
1.002608321430612
1.002429518684765
1.0025762207022
1.002401111987959
1.002695524179011
1.004203556764034
1.00410850881132
1.003544985483097
1.003842675256015
1.004346269118963
1.003727011222975
1.003979345367844
1.0333934342741
1.030167836269943
1.029654998955001
1.034018684377114
1.050525309204812
1.040549645553089
1.046646308471279
1.045595749008527
1.045566901416381
1.044566320897529
1.051802067845911
1.071519527228214
1.067105326057924
1.062815689201824
1.067765170255704
1.066589075188661
1.067230635556679
1.072099688289027
1.067660794584152
1.06568086991762
1.066555429411378
1.074672054254518
1.063167191399546
1.070544738652911
1.071484496037991
1.061533646000153
1.055877921133506
1.064248022989706
1.054000058883171
1.045236981895578
1.047143356233303
1.051033167312071
1.051381834200171
1.047520931818159
1.050018764127311
1.05390423944097
1.113134899143145
1.11809605593443
1.106925730317956
1.125687385394792
1.068531439892661
1.076979780511831
1.078878490958964
1.07647856973138
1.073118362085432
1.073600251696592
1.082691486335781
1.096020200696723
1.092453627046031
1.102369052891095
1.088694028396662
1.087883472194812
1.101335945928532
1.096966678971392
1.100186583553328
1.087193577387013
1.083580683695848
1.095316990003955
1.063618508749755
1.058482781477945
1.060751946828657
1.064597252314133
1.070904327648239
1.062114976715499
1.067972009923539
1.000761969888557
1.000748197676197
1.000827861218627
1.001600199534552
1.001584271397046
1.001721593533201
1.001771496567039
1.00157119377325
1.001755633861748
1.001613692947368
1.001054956956054
1.000974340018318
1.001048846028079
1.000982586517648
1.001042935801675
1.000975914528935
1.001061567858982
1.046205764686753
1.027803649925799
1.030714454425969
1.01188888966468
1.013963991519496
1.011304662738877
1.016784534266935
1.010753335591659
1.015719717247634
1.012541873098673
1.006424833692887
1.0071484425794
1.00627009542644
1.007739159897863
1.006133174454125
1.007543884043951
1.006572520267825
1.003742266112306
1.004097581564098
1.003676535227676
1.004319397484254
1.003621061672398
1.004246664889388
1.003800855571508
1.002135625854015
1.001892685703168
1.002109527659252
1.001951575674572
1.002088064791611
1.001932821712002
1.002157927769839
1.000981787800768
1.000994539534921
1.001063983982183
1.001051567497444
1.001045625923697
1.000986100532547
1.000982280668999
1.000962224820383
1.000961672891527
1.001050480820489
1.001010352461642
1.001031001551867
1.000975755313385
1.000937139098971
1.000955645031081
1.001028332682503
1.000997357656966
1.00093742210777
1.000932759875213
1.001022127045766
1.000960607823908
1.000942374175614
1.000989419174105
1.000984840330478
1.000906158540555
1.000921338498109
1.00100860088433
1.000923136464166
1.001189978659021
1.001129843015767
1.001192114466868
1.001084530221568
1.001106268635658
1.001217285707669
1.001165593845086
1.00130200431447
1.001344310231544
1.001445752260157
1.001419533190127
1.001408454844813
1.001334247024755
1.001311658090333
1.001283045753046
1.001285520627771
1.001422972456285
1.001354779905298
1.001386698384929
1.00131449536627
1.001255243461939
1.001176826577235
1.001102367998966
1.001067515516694
1.001153194621778
1.001095176069983
1.001145427684664
1.001184956144557
1.001160825998622
1.001059845342653
1.001053784189626
1.001107766584001
1.001080777520172
1.001130139850436
1.001137423717932
1.001267751627533
1.001379540178955
1.001240661928042
1.001327859587944
1.001369002748574
1.001231884190422
1.001276975024197
1.001249643808806
1.001317965157378
1.001189414381566
1.001308260350262
1.001348313150753
1.001214655028294
1.001223101477932
1.001631861588025
1.001544370301124
1.001635632499329
1.001465578923737
1.00150239857701
1.001680606055723
1.00158920771558
1.001811001396208
1.001888104445051
1.002049151497738
1.002000321379275
1.00198011744567
1.001869823975354
1.001828267180086
1.001777096370974
1.001781428955462
1.002007000949192
1.001882496491624
1.001940457831259
1.001833930940209
1.0017274786872
1.001749447641935
1.001927080769332
1.001834283048429
1.001701163912063
1.001685971878731
1.001908168064084
1.001765678297379
1.001717571798113
1.001816736145941
1.001799673035494
1.001612423596999
1.001656133096154
1.001871036046915
1.001670901038295
1.001608102720479
1.001494028907723
1.001566515176212
1.001434548214542
1.001481918003562
1.001553367366639
1.001622091657259
1.001580626031696
1.001423247923856
1.001489682638361
1.001412105831799
1.001458132144335
1.001527543064846
1.00154035605484
1.001065510456937
1.001025614641417
1.000976419991881
1.001076806614275
1.000996265571043
1.001098250692325
1.001044816707696
1.001046022484579
1.000984267763866
1.000950495922677
1.001018563869002
1.000977509206636
1.001012878773449
1.001052628040157
1.001032676693659
1.000945724893117
1.000940986172778
1.000983673899597
1.00096560801193
1.001001024276416
1.001013338251129
1.001156987902251
1.001203154803
1.001285490460429
1.001251222739
1.001194823266556
1.001242345258033
1.001164870958446
1.001141471664027
1.001154498570182
1.001266980910724
1.001199355691152
1.00117846023598
1.001224913267003
1.001118734852138
1.001118807710589
1.001087398888514
1.001207157087917
1.001155296776423
1.001198840528015
1.001080601591279
1.00112619898873
1.001104199192599
1.00104681678876
1.001158473503918
1.001140013453091
1.00118248561778
1.001067009770261
1.00108276056351
1.001530345403381
1.001727231960267
1.001610945103666
1.001552727244257
1.001593504256961
1.001654488356162
1.001492435394873
1.001491193201842
1.001623477914544
1.001535917776876
1.001438087629315
1.00142683459115
1.001609528402263
1.001503382152551
1.001467244606028
1.001541944138883
1.001510718068172
1.001372229590171
1.001404715066662
1.001582122579099
1.001432106398098
1.001440792379438
1.001509713563131
1.001385935709246
1.001346656894069
1.001497402426047
1.001336585778069
1.001452280823785
1.001418226745266
1.001437760144799
1.001364835335187
1.001287796459431
1.001473221877908
1.001316809616958
1.001385120885736
1.001384061048777
1.001337566688618
1.001296359905
1.001237429827973
1.001286955305151
1.001327663342564
1.001394746607325