/*--------------------------------*- C++ -*----------------------------------*\
  =========                 |
  \\      /  F ield         | OpenFOAM: The Open Source CFD Toolbox
   \\    /   O peration     | Website:  https://openfoam.org
    \\  /    A nd           | Version:  7
     \\/     M anipulation  |
\*---------------------------------------------------------------------------*/
FoamFile
{
    version     2.0;
    format      ascii;
    class       volScalarField;
    location    "0";
    object      p;
}
// * * * * * * * * * * * * * * * * * * * * * * * * * * * * * * * * * * * * * //

dimensions      [0 2 -2 0 0 0 0];

internalField   nonuniform List<scalar> 
12671
(
-0.0002734474054985909
-0.0002757377488489254
-0.0002803723475038506
-0.0002874596311715373
-0.0002971634934406219
-0.0003097039839297784
-0.0003253566893677675
-0.0003444490667956953
-0.0003673509991869483
-0.00039445543304047
-0.0004261430297618041
-0.00026760305190315
-0.0002696028741916436
-0.0002736401675016813
-0.000279789985666225
-0.0002881640542666648
-0.0002989090181218204
-0.0003122027824410996
-0.0003282475955226174
-0.0003472579289833773
-0.0003694405088824939
-0.0003949631333596436
-0.0002621855344952451
-0.0002639295209202441
-0.0002674424920613186
-0.0002727737523947486
-0.0002799953320065653
-0.000289199107684492
-0.0003004919714554337
-0.0003139881131030031
-0.0003297971848299972
-0.0003480068530761205
-0.0003686581381911908
-0.0002572828710823766
-0.0002588063704659215
-0.0002618687693628169
-0.0002664999909850466
-0.0002727425869637585
-0.0002806485396950842
-0.0002902743266284756
-0.0003016736659098568
-0.0003148872465328612
-0.0003299287116822604
-0.0003467663036578632
-0.0002529667193680767
-0.0002543046896109955
-0.0002569889238067607
-0.0002610351053623952
-0.0002664644084850882
-0.0002733004252258611
-0.0002815646588987696
-0.0002912702642388402
-0.0003024136976808303
-0.0003149640052211924
-0.0003288496758513882
-0.0002492939749759239
-0.0002504803353894592
-0.0002528562232716885
-0.0002564271241308923
-0.0002611990929166575
-0.0002671760063234798
-0.0002743556840764115
-0.0002827247364899188
-0.0002922520257809587
-0.0003028807228044603
-0.0003145191274429537
-0.0002463085533195046
-0.0002473758809058246
-0.0002495101199924848
-0.0002527096766665425
-0.0002569702320064846
-0.00026228236795144
-0.000268628319409823
-0.000275977821883407
-0.0002842830723893646
-0.0002934729150754265
-0.0003034465138905109
-0.0002440431421692034
-0.0002450226420853797
-0.0002469788376711947
-0.0002499054446661031
-0.000253791342224078
-0.0002586185309118988
-0.0002643594120312552
-0.0002709734238673968
-0.0002784031233607297
-0.0002865698846838692
-0.0002953695025262068
-0.0002425207639995074
-0.0002434424465478666
-0.0002452815561467108
-0.0002480289718427139
-0.0002516694934143492
-0.000256180040679198
-0.0002615273031145043
-0.000267664911272137
-0.0002745302536028719
-0.0002820411346013485
-0.0002900925614937729
-0.0002417560334499369
-0.0002426490364759438
-0.0002444301032632788
-0.0002470887805019559
-0.0002506079625146557
-0.0002549622162490258
-0.0002601156203864201
-0.0002660192055273495
-0.0002726081332039104
-0.0002797988175911384
-0.0002874862723034029
-0.0004627222530971908
-0.0004239084472399155
-0.0003917122384678947
-0.0003653000364974062
-0.0003439433946765628
-0.0003270307268595161
-0.0003140669891166889
-0.0003046681346893617
-0.0002985540505258275
-0.0002955420479104173
-0.0003250171539381514
-0.0003141787937206034
-0.00030715902205068
-0.0003037098102661811
-0.0005038132257513147
-0.0004558055406997282
-0.0004166924617015298
-0.0003850847912555731
-0.0003598444265071611
-0.0003400594799840731
-0.0004626367079406307
-0.0005090554168224275
-0.0005623654594033308
-0.0005490047147914197
-0.0005981954142662498
-0.0004902068836638019
-0.0005269455290898753
-0.0004431781245574396
-0.0004709846030749154
-0.0004057488779748915
-0.000427117098281258
-0.0003762334923356848
-0.0003929563128374409
-0.000353333329706653
-0.0003667209035230213
-0.0003360634347587389
-0.0003470946403858486
-0.0003236965754667582
-0.0003331258384771629
-0.0003157214142017715
-0.0003241559518541499
-0.0003322497668408938
-0.0003118128066448704
-0.0003197709114716974
-0.0003273853132767635
-0.0006223533935452404
-0.0006890773554267373
-0.0002796130689665225
-0.0002822264517601061
-0.0002875274906225323
-0.0002956667526169129
-0.0003068749254609675
-0.0003214679344616859
-0.0003398523354664077
-0.0003625291276918381
-0.0003900927257762837
-0.0004232195257371511
-0.0006501454581688347
-0.0007032155225912922
-0.0007568449445880796
-0.0008057191713218247
-0.0008476509972285572
-0.0005651035857474113
-0.0006034579776839823
-0.0006405889285716899
-0.0006740600109732766
-0.0007017746325643274
-0.0004993897973626091
-0.0005274517119982675
-0.0005540162215973404
-0.0005776411430349139
-0.000596910866706863
-0.0004486199217070253
-0.0004695456974491118
-0.000489054612149965
-0.0005062058858987992
-0.0005200738161142561
-0.0004095641989300064
-0.0004255211354380146
-0.0004402210524580921
-0.0004530206635737148
-0.0004632994763523234
-0.0003798658116076385
-0.0003923591520732367
-0.0004037553709035975
-0.0004135979400614833
-0.0004214556729992801
-0.0003578219111201334
-0.0003679250540506182
-0.0003770657735966476
-0.0003849066470746813
-0.0003911349725987911
-0.0003422244581150952
-0.0003507314540883697
-0.0003583778890683365
-0.0003649011998347334
-0.0003700619935094264
-0.0003397780290458617
-0.000346513245799622
-0.0003522367875816811
-0.0003567517985955928
-0.0003344482975438674
-0.0003407517509312556
-0.0003460973781218236
-0.0003503078757542613
-0.001474961189345782
-0.000760441176783769
-0.000832738462460799
-0.0009147474634058669
-0.0009879428150402015
-0.001055435833393691
-0.001215273843020879
-0.001274698584717534
-0.0003229521279227661
-0.0003283307977745736
-0.0003394227189511304
-0.0003569363785365233
-0.0003820405253950052
-0.0004165153440497068
-0.0004630020079907451
-0.0005254108483174688
-0.0006095914662105764
-0.0007244136854885722
-0.0008833142195624047
-0.0003196359904533849
-0.0003247718723913286
-0.0003353498584261077
-0.0003520165184228177
-0.0003758333686885931
-0.0004084065865705184
-0.0004520996438672317
-0.0005103801445653314
-0.000588396388491012
-0.0006939557465591
-0.0008390973866783086
-0.0003154019687716366
-0.0003202354562043967
-0.0003301746733054222
-0.000345792247074891
-0.000368022253748356
-0.0003982650850429145
-0.0004385562680295011
-0.0004918347565962572
-0.0005623709896642583
-0.000656442487013858
-0.0007832988504291603
-0.0003103945757718645
-0.0003148814013554265
-0.0003240902544813029
-0.0003385135438255562
-0.0003589481566189246
-0.0003865752788476032
-0.0004230858164115658
-0.0004708734456747593
-0.0005333311666623911
-0.0006153045604024868
-0.0007237516828002706
-0.0003047765039068784
-0.0003088884815305354
-0.0003173099901130732
-0.0003304523882027448
-0.0003489753180975863
-0.000373843701447898
-0.0004064146165496144
-0.0004485658266456532
-0.0005028841918756245
-0.0005729409650532532
-0.0006636866661412946
-0.0002987197618655393
-0.0003024442232345321
-0.0003100545218894961
-0.0003218846707028789
-0.0003384648423958528
-0.0003605592354042659
-0.0003892215942372165
-0.0004258731159940353
-0.0004724090004556893
-0.0005313408341253838
-0.0006059782050278957
-0.0002923974262089075
-0.0002957356221041398
-0.0003025402304605163
-0.0003130749102945414
-0.0003277535619111187
-0.0003471633410805696
-0.0003720966858743596
-0.0004035929902663712
-0.000442989703437849
-0.0004919802092168177
-0.0005526693539800404
-0.0002859766176467856
-0.0002889414383944561
-0.0002949701198165756
-0.0003042649173236226
-0.0003171396189702314
-0.0003340318423180998
-0.0003555187997973289
-0.0003823352480786705
-0.000415390792125858
-0.0004557807516373955
-0.0005047790283785542
-0.00107368930391776
-0.001104052441455731
-0.0009560237275314735
-0.0008684653681380522
-0.000781955606066757
-0.0007006223419796633
-0.0006275990332410476
-0.0005637893367927361
-0.001382944279941283
-0.001524315635879338
-0.001309744840830026
-0.001128564670088115
-0.0009347767087536208
-0.0008190892811799852
-0.0007185128963384629
-0.0006333228173668415
-0.001773767547210687
-0.002427196766262152
-0.00162796383272491
-0.00275561412917248
-0.001460007036242193
-0.002327853452877798
-0.001284564215878509
-0.001932644564584145
-0.001204644162869535
-0.001602360049936063
-0.0009652052722717621
-0.001261953833938768
-0.0008272419886888042
-0.0009566141876576137
-0.0007137699181824465
-0.0008057406825169019
-0.001383230661012236
-0.001652635511569714
-0.001965778518972027
-0.002316899782479244
-0.002910704132543693
-0.001179506766730738
-0.001139323428607774
-0.001368930820928111
-0.001445945531684558
-0.001657413062710373
-0.0009049396825758033
-0.001027575679145996
-0.008024008862546107
-0.003477433538404779
-0.005251903610078461
-0.006847181974624795
-0.01441536933283891
-0.03216596462551093
-0.002998885594699278
-0.004308626682114698
-0.006429824740732774
-0.009907104416302191
-0.02244422982985139
-0.002505937127312394
-0.003416016918942266
-0.004748130457229482
-0.006652213948391981
-0.01133059899652776
-0.002058777084758363
-0.002671191033270417
-0.003491484663463962
-0.004543409336651249
-0.00672983205677629
-0.00168763377850647
-0.001749540289831729
-0.002103340362690124
-0.002502806476349511
-0.003192031162947337
-0.1070555635072381
-0.03415221042003685
-0.05135551020491828
-0.0003598961723267078
-0.0003532379923446133
-0.0003252327255182519
-0.000330781404104262
-0.0003422337496607472
-0.0003603428952000783
-0.0003863551184925379
-0.0004221766692888576
-0.0004706498234726709
-0.0005360043685475553
-0.0006245977995945894
-0.000746128375320369
-0.000915617899122301
-0.001097906529930768
-0.001430217719500964
-0.001804678816015442
-0.002483015662482401
-0.003584197867508082
-0.005097908345665466
-0.0543547976280804
-0.07997909857879779
-0.08453820673988226
-0.05646630909373319
-0.08163603019041617
-0.1141075265830687
-0.07366786748038097
-0.0008810018132187964
-0.0007217530412986417
-0.0006105687397134039
-0.0005298569243056969
-0.0004705258826895421
-0.0004269626232714092
-0.0003954881582665373
-0.0003736613708183578
-0.001522284442794384
-0.001124805248933294
-0.002980891286645192
-0.001682993561351713
-0.05476097361238716
-0.02351396143134988
-0.01205322649703533
-0.007025927869622034
-0.003274556413806876
-0.001317806270265682
-0.001651558988189254
-0.001549795963405465
-0.001557927303380023
-0.001465234143771496
-0.001331841505936113
-0.001284187467260496
-0.001660651656994563
-0.002234932680834526
-0.002066771005760271
-0.001666875213898203
-0.001564460308439796
-0.002070716656152043
-0.001925018048609038
-0.002232946994696105
-0.003163805724005633
-0.00285630656671569
-0.002862193917807342
-0.002607607790814806
-0.002236923575113996
-0.002070555468381844
-0.001527621444622914
-0.001502185350770776
-0.001417595322952083
-0.002011173091195841
-0.001873112067274682
-0.001825605760435793
-0.001710374780883098
-0.002518594862475365
-0.00243327544071378
-0.00224588420725856
-0.002168302320152634
-0.002011430635626592
-0.001955898900762602
-0.001826953453941171
-0.00137297752770996
-0.001380755463033485
-0.001339902554477719
-0.001762855474374946
-0.00165496576535225
-0.001568829543737781
-0.001498315649176034
-0.002155604393343222
-0.002026453320326805
-0.001894449785014626
-0.001884594086838182
-0.001764743434769496
-0.001671093745894534
-0.001585196435092657
-0.001811519248873485
-0.001678290179103948
-0.001576212155295739
-0.001600610985513179
-0.001527899284959595
-0.001429356397591173
-0.001405345139644733
-0.001559259251624943
-0.001882888872672251
-0.001776064260808347
-0.001455919856568196
-0.001410075966165926
-0.001554676751719678
-0.001496267901538531
-0.001850890898044568
-0.002227260693785434
-0.002084108132084722
-0.001608410007644384
-0.00154802147742312
-0.001797066901088993
-0.001706286134949883
-0.002163610201096738
-0.002584653258970363
-0.002400505799037307
-0.001859400794834006
-0.00175917043354041
-0.002038398305963237
-0.001916989581091438
-0.002247740695226657
-0.002105535395359706
-0.002687394052199658
-0.002671143105080807
-0.002476801493305225
-0.002094621605937787
-0.001967661055901875
-0.001453558312575069
-0.001537726739884465
-0.001487744611273256
-0.001734490742401809
-0.001648571667911645
-0.001892656418720836
-0.001785202814237953
-0.001569754420258646
-0.002074170600331501
-0.001950413187184014
-0.001488030509552484
-0.001569050634081121
-0.00194154985184257
-0.001829810757479766
-0.01029103398476018
-0.007179175844007886
-0.008942727844237115
-0.01394860918559818
-0.01015158231820877
-0.02877897887587944
-0.02433647315514455
-0.01502731558406023
-0.0104131429868697
-0.02744126063886372
-0.0216440598988367
-0.003115830124201889
-0.004711973833844569
-0.004106764863364277
-0.003123083027888298
-0.002827445495830341
-0.004121992922825339
-0.003648888929115271
-0.00452598529503351
-0.006151523676068317
-0.007446427974257934
-0.004545984630948072
-0.003988591046162946
-0.006199125769659662
-0.005267855247888505
-0.00843601449478301
-0.01260548271694506
-0.009567978543200172
-0.006911580775190926
-0.00579894008033184
-0.009722724599018141
-0.007790781524662167
-0.01010387851517515
-0.02216553284727434
-0.01886587254654503
-0.01094121657194751
-0.008606579534192327
-0.01571811214497225
-0.01106718480671058
-0.02444940674587122
-0.0154625525893721
-0.02776231934410686
-0.02986999521420922
-0.02295405645865825
-0.01665873656786574
-0.01157945954153516
-0.002724886640789821
-0.002626580874098233
-0.002412885975377759
-0.003921239110287057
-0.003489632865681347
-0.003337913472174351
-0.003016880585151802
-0.00380326713854096
-0.005797765181220247
-0.004971937514322803
-0.003627315150344731
-0.003258253830883194
-0.004694709515659342
-0.00412904179894212
-0.005451781330938998
-0.00887231184084549
-0.007226728550103283
-0.005128293568936629
-0.004474732683929203
-0.006711127586389559
-0.005702116337528968
-0.007943763788159211
-0.01474151722814536
-0.0105572479836652
-0.007342582141863954
-0.006178063299202339
-0.009562814637775521
-0.007798911304420177
-0.01462353268013416
-0.01286688114926363
-0.01024888754560187
-0.01558413882949435
-0.01104067820070146
-0.0104025232123304
-0.008394015276553372
-0.002310335056616229
-0.002164269927572416
-0.002015794829593025
-0.00315477403590051
-0.002865368851838721
-0.002651420307782717
-0.002441172025789107
-0.00308526199646394
-0.004367060453066451
-0.003870171469584255
-0.002841779091411252
-0.002605476627482424
-0.003510188418780582
-0.003174339927512645
-0.004178353025502755
-0.006115968087475028
-0.005258328412353597
-0.003768152143244617
-0.003390789261997386
-0.004653826895267696
-0.004122284613681321
-0.005671586421925771
-0.008499971995679039
-0.007058364957595786
-0.00498566839472177
-0.004392113327458027
-0.006073200699798293
-0.005262258918495714
-0.009101545799705362
-0.007611016707624058
-0.00646136345336239
-0.009185093991887413
-0.007559938441552211
-0.006457259511518178
-0.005564890946828793
-0.001923160270435571
-0.001772628038928263
-0.001663959507698861
-0.002500255763747562
-0.002311449103054454
-0.002097436985383433
-0.001959673423524174
-0.002460155731628837
-0.003264910548184063
-0.002970050319116231
-0.002220657180910878
-0.00206973434721764
-0.002636961055146467
-0.002436375149043528
-0.003162168804965005
-0.00425940740991152
-0.003804351033559993
-0.002791177629768873
-0.002570740232811356
-0.003296527629815619
-0.003006769832703509
-0.004038637742730731
-0.005461331901473003
-0.004785436852986875
-0.00347720741560025
-0.003161223830141862
-0.004041030812947118
-0.003638843446967646
-0.005794935986165061
-0.004776701547174386
-0.00425323174936547
-0.005781160344277665
-0.005042243589973379
-0.004230919036399471
-0.003798322464962736
-0.001583990525230758
-0.001460774479428263
-0.001423752955238584
-0.001671712942446335
-0.001573197953832581
-0.001979522931956649
-0.00185469270136005
-0.001649239489629938
-0.002009610847847772
-0.001888029208831015
-0.002089815887086486
-0.001954398827485532
-0.002459876554289121
-0.002283062626487176
-0.001972055733223453
-0.002400284792499672
-0.002235949044380285
-0.002595811709345693
-0.002402429672823149
-0.003036946124795319
-0.002786379991133914
-0.002326507641414616
-0.002811521164217261
-0.002597932181014192
-0.003193137858131258
-0.002921206968941109
-0.003675745553100747
-0.003334501674568498
-0.002929920855178141
-0.004295464150936019
-0.003858681918056012
-0.00291198985241608
-0.00268586291113228
-0.003836737061194542
-0.003471340001836943
-0.0697953925630941
-0.05728562008476659
-0.06042562143161173
-0.05569434125894192
-0.05018758527414592
-0.07619024209811052
-0.06046454652342426
-0.03086612380196451
-0.04573761093537076
-0.03360458283586346
-0.02842965812471991
-0.02738581329531675
-0.03665547311096184
-0.03201427452083101
-0.04730948790948565
-0.05055403895591231
-0.03987514092041004
-0.06859002999604588
-0.0557792397202832
-0.03991501412237547
-0.03460428616443827
-0.001190544786442637
-0.001678568006820017
-0.00157298045886676
-0.001415678002084768
-0.001332619535187371
-0.001742466635734888
-0.001630032179426154
-0.001687629298826449
-0.002282868365084812
-0.002107726644277674
-0.001878645184571588
-0.001752044738391328
-0.002398071249965187
-0.002205394706954162
-0.002280129921123407
-0.003253985329945082
-0.002929740556675727
-0.003474521371806523
-0.003107521166318297
-0.002617605785364449
-0.002393036389142592
-0.003201487779082926
-0.004588284981799665
-0.004894771062869339
-0.004245572297923828
-0.003846840895479664
-0.003409776927750536
-0.005354424420111486
-0.007130329217003504
-0.00892342342954673
-0.005473107787474649
-0.004690173005347889
-0.006428709641867226
-0.007853946976817674
-0.006034367924624873
-0.03610578785651317
-0.0314687833136587
-0.04893676441549734
-0.03983995994396779
-0.1146744917741386
-0.1073999569696264
-0.09522380172663977
-0.08989309744106938
-0.05000437760447539
-0.07580560432013855
-0.06035928532416705
-0.1026397600431718
-0.08234482189679061
-0.07128271385534088
-0.08639453232133805
-0.09365843331635017
-0.08810641273839767
-0.07565191842783955
-0.1094442140386808
-0.1025194208352155
-0.09153154477947741
-0.08638819343173507
-0.07288488752381293
-0.06115166388020749
-0.06679297483561324
-0.09802255785677143
-0.07904899610900339
-0.06870654773831206
-0.08304892881835793
-0.04684085509640309
-0.07401335679545598
-0.06500324782163158
-0.0525996063677958
-0.0552618258815794
-0.04596536573970315
-0.04912078411833291
-0.0462351545121437
-0.07132266845813122
-0.06279350646746347
-0.04863346209844543
-0.146243177011065
-0.1350909628927498
-0.1220254727425188
-0.1139215467764325
-0.102497669132813
-0.127895774615557
-0.108632551202246
-0.08622139258779293
-0.1016478843172377
-0.08965266834392113
-0.1209223661062711
-0.08868622936262231
-0.07558097043245098
-0.1034911610739476
-0.08267260353363463
-0.1065110161024603
-0.1377451124466717
-0.1275016773122525
-0.09858190868496858
-0.09255553160319648
-0.1161116745817858
-0.108453400095989
-0.08947877191011128
-0.06223459736053223
-0.06278198692595539
-0.04757190938449914
-0.07708540907397583
-0.05529415958330632
-0.06978615463276325
-0.05947562983036542
-0.0686058963395358
-0.0537637635736123
-0.04710285827110629
-0.07424711584619313
-0.002291898648531231
-0.002145162772897763
-0.002748891706587006
-0.001590241877381179
-0.002112244229181862
-0.00198478004027746
-0.04073113689381945
-0.05174541081485386
-0.02568248024164338
-0.01603474821809065
-0.03694804649895043
-0.01514823424518569
-0.01332410603028041
-0.009877624687379788
-0.009590206793179656
-0.007975502280184637
-0.006740804797545838
-0.006027304762969913
-0.004942155661137406
-0.004390195649778124
-0.003001564597347317
-0.004433418247291479
-0.003974476915735581
-0.0713956201906548
-0.0566314847533913
-0.06942306105699873
-0.1547480062929882
-0.1424476674843088
-0.1066760540482288
-0.1345453033208175
-0.08468441475231797
-0.1060536348257122
-0.09316952054615187
-0.1269136247651913
-0.1194115171153979
-0.1112632966317926
-0.1452683166969123
-0.1340787660808914
-0.04992241014893248
-0.05603800730846512
-0.04422714382742972
-0.05196582812287883
-0.02813944572673869
-0.03045585440508404
-0.02520096382264209
-0.02917600213847806
-0.04177402150960031
-0.03566682351688703
-0.04822876439165764
-0.03137208551599355
-0.02861410283317414
-0.03557137423219211
-0.04371097790403699
-0.05162618359799869
-0.07620733710268698
-0.05278720243192723
-0.0638089760721611
-0.001295228565503672
-0.001254661239116761
-0.001424942287117598
-0.00138173130376357
-0.001425675385989638
-0.001220044512100833
-0.001255177159669218
-0.001334188136675206
-0.001372055079375429
-0.001309947225736894
-0.001161776839750367
-0.001133587378647299
-0.001179461112523527
-0.001211702653042775
-0.00104199856668128
-0.001213528768329269
-0.001169963324590347
-0.00117608181505466
-0.001139601251121753
-0.001044781567198299
-0.00101687217629826
-0.001342875062999027
-0.001383165261609161
-0.001337217620400143
-0.001282219262957587
-0.0012427979905676
-0.001225932084819666
-0.001187845069379769
-0.001269884069529165
-0.001232871781400567
-0.001196353225500184
-0.00116801087765558
-0.001132948465245819
-0.001105455561587295
-0.001074974287576565
-0.001850916424245242
-0.00175412050274099
-0.001910589807775021
-0.00174026309761894
-0.001721561005222826
-0.001888639049327304
-0.001871979824995085
-0.00253679744395272
-0.002393987290870223
-0.002643511342868415
-0.002367087062237119
-0.002335446693509119
-0.002604905616161821
-0.002573452662741004
-0.001678932236604137
-0.001611806133000936
-0.001587792464251515
-0.00174261207564617
-0.001572887247004698
-0.001724191838883791
-0.001696334237326469
-0.002412253197118607
-0.002714998624446847
-0.002647958027699912
-0.002538065233271831
-0.002502877279983742
-0.002610326608853812
-0.00244500115907147
-0.001493541683862399
-0.001450290012655461
-0.001417254620373668
-0.001551953218277786
-0.001416161840657482
-0.001538935216001598
-0.001503277481079648
-0.002051387311415843
-0.002298516522146901
-0.002224569087012594
-0.002165902686085372
-0.002140090944747331
-0.002197756488321693
-0.002074979304222901
-0.001252827101843003
-0.001203591473535828
-0.001172609576505829
-0.001499755725131814
-0.001404873403307304
-0.001333102041470915
-0.001301823143340485
-0.001719845725444335
-0.001912459708193347
-0.001843120381003334
-0.001815302207871779
-0.001798117412543415
-0.001824559276899515
-0.001735503141056115
-0.001426389752667649
-0.001386897878616636
-0.001344203088239681
-0.001222148092645455
-0.001259770627745779
-0.001373491283285941
-0.001333645907986134
-0.001221215031080754
-0.001150285434043056
-0.00112013820323735
-0.001125356068084431
-0.001156335609541186
-0.001059213410482555
-0.001042387653966995
-0.00132172466979803
-0.001246177313601184
-0.00120549459337913
-0.001585342199918079
-0.001420208764167621
-0.001352207491221635
-0.001294830384894054
-0.001611357626355282
-0.001633499685245525
-0.00172577820509106
-0.001563876319301317
-0.001542887854406447
-0.001708409687812383
-0.001627634714610518
-0.001897188949555153
-0.001946547305961432
-0.002051129915588981
-0.001839037880734323
-0.001822872146094485
-0.002030425659084023
-0.001914612724194907
-0.002203555168905489
-0.002290944448784546
-0.002406788872818908
-0.002149014636065068
-0.002126603825789252
-0.00237901595855695
-0.002227592110334322
-0.002566410251656456
-0.002662481692218129
-0.002872542332129006
-0.002835069146386362
-0.002798510334669008
-0.002629876314121266
-0.002597727972283161
-0.001213883717837544
-0.001237839228715628
-0.001298988561340971
-0.00126620171478734
-0.001389136470473709
-0.00135980804132361
-0.001160816114966048
-0.001291693415446759
-0.001315971544091916
-0.001403172139947643
-0.001490947083630251
-0.001462822838401576
-0.00167793703004418
-0.001559999545777828
-0.001733828921550619
-0.001642867307771378
-0.001781089973104127
-0.001629122317009916
-0.001615181441832459
-0.001764758557843797
-0.001749554337084384
-0.01002647259728001
-0.009105891042694363
-0.009049365331804719
-0.007775258860091246
-0.01043551565951976
-0.008781342734798398
-0.008756340651338759
-0.02041763685980382
-0.01747307649911239
-0.01603274083822701
-0.02260796322448685
-0.003631096595713825
-0.003415043709872438
-0.003834734352630848
-0.003363890278072902
-0.003305329588689612
-0.003760810496781649
-0.003700173255284186
-0.005456491370697064
-0.005125008699800503
-0.005876277432963899
-0.005021014358810643
-0.004904360456745277
-0.005722622572388238
-0.005596809019199354
-0.008056499985588515
-0.007608902583619243
-0.007638393415522687
-0.006502162607690399
-0.008574037076363185
-0.007184379339222493
-0.007226042303427356
-0.01430560317309928
-0.01337976866818861
-0.01801032785186897
-0.01263920282121054
-0.01654038843658868
-0.01165606349381113
-0.01543037482551632
-0.03992865674368095
-0.04659904622404163
-0.0367797340675457
-0.02574026174742142
-0.03502275145042683
-0.0309411505946705
-0.02875132721698584
-0.00307586979294719
-0.002951833626367209
-0.002873981708908016
-0.003271420736700637
-0.00283059089885148
-0.003216723065685602
-0.003126058136066234
-0.00437785092442918
-0.004220953197823822
-0.004745652330973394
-0.00407505664042119
-0.004642372112170239
-0.003996024324649003
-0.004470306956197215
-0.006420012219395538
-0.006257818456935438
-0.007145526151575362
-0.005970281984226057
-0.006940468777222266
-0.005820068329015176
-0.006597339813836303
-0.009592965658329938
-0.009555283213364765
-0.01107131828757456
-0.008964761767789771
-0.01065086026866893
-0.008670991075399294
-0.009940294422996852
-0.01440834523905252
-0.02054377299388855
-0.0175390466209982
-0.01932802773213657
-0.01781550853867388
-0.01629832964329471
-0.01543124958842535
-0.002533030230295905
-0.002472542074102706
-0.002388307038176222
-0.002701846025762613
-0.002357866713543452
-0.002663773300218487
-0.002567591797097125
-0.003413934464514582
-0.00335907720641028
-0.003703506713734308
-0.003214353327988511
-0.003638210837915938
-0.003163496611534471
-0.003471892223910485
-0.004660737300843245
-0.004649128616138691
-0.005165285641188825
-0.004395255023586111
-0.005051465424498992
-0.004309207787626466
-0.004758894312033877
-0.00635619841600462
-0.006479950959743521
-0.007229442495184913
-0.00603372800337181
-0.007032335281071014
-0.005888946106834243
-0.006520338642069309
-0.009010864149084925
-0.0109456104537603
-0.009876059859591649
-0.01061429178187761
-0.01025698673000863
-0.009562650582286053
-0.00929755350235714
-0.002058338540236918
-0.002035843256306899
-0.001958179321948776
-0.002194828160752678
-0.001937161031549022
-0.002169075804794691
-0.002081783518366663
-0.002639479011034531
-0.002635103676983718
-0.002855214510999129
-0.002510980234307262
-0.002814809709946471
-0.002478778916406853
-0.002675319883062963
-0.003393515530022749
-0.003434828355724259
-0.003732856992042646
-0.003237469615827047
-0.003669543188722098
-0.003188081449676442
-0.003448377217365729
-0.004318664123004664
-0.004455973454839488
-0.004839705703506516
-0.004147937094555283
-0.004742827035043246
-0.004073576290223772
-0.004400533379555943
-0.005598315307231927
-0.006566114332467773
-0.00597773081934344
-0.006420104500424973
-0.006268048010798308
-0.005844211212053923
-0.005722987107270243
-0.001672800948823174
-0.001671248691417296
-0.001607673955063794
-0.001778629244758667
-0.001593451133038422
-0.001760433878584733
-0.001689515025060289
-0.001927290734787177
-0.001731060923823901
-0.001832282520479529
-0.001854631166620692
-0.001813692927748778
-0.001835327990714078
-0.001947621031894579
-0.002335439056712056
-0.002081142169559388
-0.002199994672726949
-0.002253280762137277
-0.002176033741448302
-0.002227909932487149
-0.002362930345053498
-0.002790742372444087
-0.002472821727806522
-0.002606039902284402
-0.002709036535291119
-0.002573915814429068
-0.002674378501969012
-0.002827983072472962
-0.003356969469077841
-0.003147139979246294
-0.003511963110542346
-0.003103341277874045
-0.003060455185921488
-0.003458886449847064
-0.003407523733014896
-0.1002263188670749
-0.09311340491752666
-0.08761553664827912
-0.07416765297247943
-0.08850843890670164
-0.08356253885231911
-0.07830545213570737
-0.03453663132093967
-0.03341899358687898
-0.03758746492768936
-0.03220340274889855
-0.03153945278855794
-0.03673163371671292
-0.0353073367890861
-0.05037895268311328
-0.04997087406918265
-0.05661142193446033
-0.04726776181856204
-0.04605428927991318
-0.05497093263953534
-0.05180088176500824
-0.001062467449381703
-0.00125038671203628
-0.001191346146016725
-0.001269593806389446
-0.001227686849512014
-0.001116412511953065
-0.001082327625164414
-0.001464611814605965
-0.001411584339002431
-0.001476017493312029
-0.001403573873193215
-0.001439504941039822
-0.001375593860432571
-0.00148799952238208
-0.001955103185078215
-0.001784212130118052
-0.001946257184540555
-0.001832718308975597
-0.001923472025378127
-0.001811752806257651
-0.001978612059109581
-0.002726033837188751
-0.002448308969657874
-0.002708740479422729
-0.002533818471940604
-0.002668270336562884
-0.00249771594800248
-0.002768245605689383
-0.003995991118276906
-0.003518098867755169
-0.003961768373017755
-0.003682471309238456
-0.003883121153340855
-0.003612864800434083
-0.004079129351238638
-0.006066767162497541
-0.005682666190338844
-0.004978965415629326
-0.005550830357983245
-0.006238761388532077
-0.005409674879718211
-0.005540191963977403
-0.04322126239528735
-0.03988209380691911
-0.03894619417429452
-0.0443228586826797
-0.06297599911337783
-0.05281032054044971
-0.06047188484162171
-0.05812833643919902
-0.05863693479404213
-0.05643124442802805
-0.06500017812528043
-0.08773756382706403
-0.08434441837701186
-0.07924793085761719
-0.08384428656125818
-0.08354997575020404
-0.08306251119218432
-0.08859478632547646
-0.08022411492267781
-0.08051283845976399
-0.08023125120075961
-0.08892631685217595
-0.07654853997728919
-0.08453402514209259
-0.08422633566507183
-0.05740424527547925
-0.04806182528422209
-0.05887380044730983