/*--------------------------------*- C++ -*----------------------------------*\
  =========                 |
  \\      /  F ield         | OpenFOAM: The Open Source CFD Toolbox
   \\    /   O peration     | Website:  https://openfoam.org
    \\  /    A nd           | Version:  7
     \\/     M anipulation  |
\*---------------------------------------------------------------------------*/
FoamFile
{
    version     2.0;
    format      ascii;
    class       volScalarField;
    location    "0";
    object      Phi;
}
// * * * * * * * * * * * * * * * * * * * * * * * * * * * * * * * * * * * * * //

dimensions      [0 2 -1 0 0 0 0];

internalField   nonuniform List<scalar> 
12671
(
28.35310562387223
28.35310520265426
28.35310433101658
28.353102950712
28.35310097487294
28.35309828895397
28.35309475261721
28.35309020323093
28.35308446197728
28.35307734397306
28.35306867424882
28.35310535936219
28.35310505224034
28.35310441533056
28.35310340371699
28.35310195115954
28.35309997172659
28.35309736245693
28.35309400752312
28.35308978454247
28.35308457385567
28.35307827171093
28.35310501975678
28.35310481103961
28.35310437592681
28.35310367959286
28.35310267119595
28.35310128574793
28.35309944694103
28.35309707122968
28.35309407354019
28.353090375024
28.35308591323507
28.35310463097023
28.35310450535601
28.35310424016577
28.35310380803347
28.35310316934805
28.35310227410326
28.35310106456902
28.35309947895104
28.35309745622359
28.35309494230173
28.35309189763472
28.35310422223457
28.35310416520861
28.35310403990125
28.35310382433655
28.35310348691306
28.35310298810806
28.35310228285841
28.35310132369451
28.35310006469439
28.35309846628502
28.35309650083156
28.35310382376502
28.35310382179817
28.35310380853227
28.3531037657939
28.35310366756149
28.35310348148166
28.35310317093308
28.3531026976572
28.35310202495467
28.35310112140404
28.35309996498798
28.35310346453654
28.35310350512427
28.3531035782942
28.35310366847822
28.353103753433
28.3531038055748
28.35310379375837
28.35310368548592
28.35310344950818
28.35310305874286
28.35310249338177
28.35310317029128
28.35310324187173
28.35310337790182
28.35310356452089
28.35310378193593
28.35310400560719
28.35310420780275
28.3531043594892
28.35310443250268
28.35310440191418
28.35310424846315
28.35310296186346
28.35310305364835
28.35310323061459
28.35310347992572
28.35310378324616
28.35310411782292
28.35310445788793
28.35310477633853
28.35310504663265
28.35310524480992
28.35310535151934
28.35310285388086
28.35310295562735
28.35310315276396
28.35310343293284
28.35310377847564
28.35310416746228
28.3531045750169
28.35310497489424
28.35310534124077
28.35310565045124
28.35310588300636
28.35305831177764
28.353070808234
28.35308065491826
28.35308830610712
28.35309415880256
28.35309854740561
28.35310174398708
28.3531039608873
28.35310535390339
28.35310602515256
28.35310082591645
28.35310354321659
28.3531052484945
28.35310606970211
28.35304633533375
28.35306227858675
28.35307468667123
28.35308423629859
28.35309148886641
28.35309689907425
28.35305681974494
28.35304267103895
28.35302606572215
28.35303287094717
28.35301796155245
28.35305280827545
28.35304245875792
28.353068114511
28.35306099728106
28.3530797705278
28.35307495829178
28.35308855109954
28.35308538420923
28.35309506137725
28.35309306316503
28.35309976596681
28.35309858500453
28.3531030116883
28.35310238129564
28.353105044718
28.35310475375528
28.35310439621266
28.35310602275037
28.35310589361211
28.35310569807433
28.35300707095611
28.35298562396797
28.35310579297917
28.35310524221445
28.35310410313577
28.35310230032479
28.35309971996814
28.35309620938816
28.35309157711645
28.35308559434318
28.35307799910308
28.35306850531311
28.35300203265573
28.352985842193
28.35296943614716
28.35295405019198
28.35294168362235
28.35303152410154
28.35302042282062
28.35300958641101
28.35299968369296
28.35299162929062
28.35305354568496
28.35304604496421
28.35303883813293
28.35303234418408
28.35302704081089
28.35306994956173
28.35306494141759
28.35306017055641
28.35305590511995
28.35305242406238
28.35308209266748
28.35307881076448
28.35307569677279
28.35307292360224
28.35307066381334
28.35309097539072
28.35308888814558
28.35308690607037
28.35308514120545
28.35308370311581
28.3530973300363
28.35309606076616
28.35309484612203
28.35309375916667
28.3530928706163
28.35310168274052
28.3531009556436
28.35310024592611
28.35309960217019
28.3530990712154
28.35310399953446
28.35310359594346
28.35310321968556
28.35310290380581
28.35310545784083
28.35310519874569
28.35310494841213
28.35310473356195
28.67799430770267
28.3529623350889
28.35294016469057
28.35291431330242
28.35288928224326
28.35286920222326
28.0275618680519
28.02752871328654
28.35310415257961
28.35310240100619
28.35309874298351
28.35309285255919
28.35308419735206
28.35307197738265
28.3530550258617
28.35303165031756
28.3529993745787
28.35295450315974
28.35289133897789
28.35310443742674
28.35310279704981
28.35309937502666
28.35309387509307
28.3530858162499
28.35307448192448
28.35305883899821
28.35303741156977
28.35300808415969
28.35296778817187
28.3529119478851
28.35310476529268
28.35310326195244
28.35310013003319
28.3530951080532
28.35308777463867
28.353077508629
28.35306342663505
28.35304428756096
28.35301834593647
28.35298311709911
28.35293495307238
28.35310510002446
28.35310375176937
28.35310094717944
28.35309646177899
28.35308993700301
28.35308085084041
28.35306847293522
28.35305179801771
28.35302944822099
28.35299953043025
28.35295943435773
28.35310540528829
28.35310422225081
28.3531017652063
28.35309784633625
28.3530921686255
28.35308430582421
28.35307367278491
28.3530594834777
28.35304069341968
28.3530159237564
28.35298336691193
28.35310564842446
28.35310463337798
28.35310252843194
28.35309918004378
28.35309434806073
28.35308769324205
28.35307875960201
28.35306695101029
28.35305150207744
28.35303144509146
28.35300557802055
28.353105803608
28.35310495301951
28.35310319145994
28.3531003959186
28.35309637622999
28.35309086824295
28.35308352479366
28.35307390496695
28.35306146297225
28.35304553956504
28.35302536134654
28.35310585402944
28.35310515939114
28.35310372220055
28.35310144553613
28.353098181356
28.35309372756062
28.35308782465318
28.353080152839
28.3530703311419
28.35305792129656
28.35304244080837
28.67804546794499
28.0275613572447
28.35286808728624
28.35290559392758
28.35294066364969
28.3529724392195
28.35300005486118
28.35302339110329
28.67798240080528
28.84061441642965
28.67800069809653
28.02755965299139
28.35288524394312
28.35293080390544
28.35296906946808
28.35300059439722
28.84058781290241
28.84052100673954
28.84060392841596
28.8404907991664
28.84062345072187
28.84053774378901
28.67800435026675
28.8405792381569
28.02752616116582
28.84061322234025
28.35287922644611
28.67802106487255
28.35293177344221
28.35288653350297
28.35297389780427
28.35294270787624
28.6780003772603
28.84061153919737
28.8405843494935
28.84055426425317
28.84050360080838
28.02756624449198
28.02759693461579
28.02747161984164
28.0274296783875
28.84061836966858
28.35290606920061
28.02765701316046
27.85815447927283
28.84041108416235
28.84022161249218
27.85966855769139
28.92125973432226
28.42052856010185
28.84046603846155
28.84033168445998
28.84011269323853
28.83975439016284
28.92088613371881
28.84052034628504
28.84043094219064
28.84029986425208
28.84011383332691
28.83966625144547
28.84056746584114
28.84050994661401
28.84043278446569
28.84033447442212
28.84013396166912
28.8406052253669
28.84060208289335
28.84057127165203
28.84053663715015
28.840477245016
28.95919345243608
28.92003780823368
28.91908405975671
28.35310267680484
28.35310457726542
28.35310394261531
28.35310211255698
28.35309828763454
28.35309212012962
28.35308303968952
28.35307018396538
28.35305228459436
28.35302748134831
28.3529930144117
28.35294470011816
28.35287601255164
28.67804034323304
28.84062622874607
28.84058439503323
28.84051460641015
28.84039853089087
27.86132009427046
28.91865706667732
28.96009632194894
28.61087325162238
28.27271116875982
28.3419633426027
28.95886814572606
28.25525374764172
28.35293474174273
28.35298622772552
28.35302333056379
28.35304996686613
28.35306906701117
28.35308268679267
28.35309224159813
28.35309869346325
28.67798742683652
28.02760760878025
28.84049764449655
28.84061616402364
28.40952346137162
28.92083276204809
28.83960004609847
28.8401072687249
28.84047018407993
28.02740879866052
28.84060034226659
27.86456970355573
28.84061045876696
27.86464420209906
28.67799224415962
28.02743953537295
27.86447939126454
28.84054082137549
27.86414324147647
28.84059955896019
27.86456589374353
28.84055925572595
27.86427493810919
27.86400345356899
28.84044414932348
27.86346850267446
28.84047878829493
27.86370864847191
28.84054249466742
27.86415566006159
27.86459786227188
28.84061836560747
27.86469325378257
28.8405658369973
27.86432225196461
28.84058590450342
27.86446754554688
27.86379239558967
28.84052636859081
27.86404215858306
28.84055011473892
27.86420996742823
28.84057320877695
27.86437579915088
27.86472541550062
28.67798734726851
28.02742714674787
28.84059254442743
27.86451595359845
28.84061183721134
27.86464918426125
27.86412267138677
28.84056953365473
27.86434959377004
28.8405807813079
27.86443058254251
28.84060263408945
27.86458572936706
27.86441956836941
28.84060527413003
27.86461042261782
28.8406097278565
27.86463038347665
28.84062208898519
27.86478145883783
27.86465636665161
28.84059147637857
27.86450690360749
28.67798767843204
28.02742814678492
28.84062318892192
27.86472575521675
27.86445467796871
28.84056193309225
27.8642923084947
28.84061740868642
27.86468827445429
28.84060185255622
27.86457914127207
27.86423719589219
28.84053137823599
27.86407369767389
28.84059677838651
27.86454274505429
28.84058205821728
27.86443562111654
28.8405647144728
27.86430948884539
27.86387698989297
28.84052399615595
27.8640212495487
28.84057740228491
27.86440165180224
27.86476620933303
28.84062868698121
28.67798897274483
28.8406082651803
27.86462504404651
28.84059534353325
27.86453203098573
27.86469160265103
28.84058040599957
27.86442242671927
27.86474660545105
28.84062570885579
28.84059131927473
27.86450245909104
28.83964199147151
27.85926243389511
28.83981339079105
28.92128040879431
27.85589194866632
28.42139448986455
28.08853101918418
28.92121616669665
27.77305048368238
28.42222459017266
28.09215570066154
27.86324099538608
28.84027961003093
27.86234705164415
28.84045198319737
27.86352276282776
28.8403486057694
27.86281408212319
27.86195694428377
27.86037737415638
28.83998378898762
28.84030448831593
27.86251472123321
28.84013177958337
27.86135569131633
28.83987573217345
28.83941704565607
27.856712597035
28.84005716802821
27.86086019837149
28.83976282250499
27.85892924070934
27.77356349902661
28.42521459110081
28.09537809963859
28.83963564036822
27.85810475760831
28.92121960064023
27.77309770134697
28.920773402389
27.7672698674649
28.08679241651231
28.42162184230908
28.09157406379206
28.9211709711607
27.7724521544368
27.86362014736748
28.84050727941931
27.86390787573387
28.84037155134254
27.86297034222953
28.84043668656611
27.86341700127322
27.86269892373092
28.84017799851399
27.86166367970663
28.84040788193533
27.8632186932522
28.84030158423056
27.8624939958743
27.86122812256669
28.83986072856718
27.85956649928444
28.8402584585699
27.86220255105816
28.84010165638945
27.86115240570044
27.85887297788407
28.92127629289877
27.77384400031515
28.84003945695701
27.86073932229734
28.83982267933849
27.85931198345458
27.76871012799726
28.92140504208793
27.85710847755882
28.92123242980128
27.77326350466673
28.83974145163342
27.85878160484507
27.86399976117768
28.84055652953499
27.86425648545526
28.84045665529883
27.86355500643101
28.8405102959261
27.86392893772553
27.86337724304804
28.84033731803391
27.8627361946277
28.84049217956394
27.86380190457763
28.8404285702012
27.86336015602476
27.86248193296815
28.84016600495795
27.86158093761884
28.84040406475366
27.86319139246785
28.84032028322643
27.86261886857774
27.86123251242375
28.83993559545089
27.86005141425447
28.84028906460297
27.86240699649824
28.8401875144901
27.86172213406144
27.85828808469369
28.84004608267065
27.86077700895406
28.83987010717333
27.85962068718903
28.84015194641438
27.86148360516887
27.86433492014869
28.84059663999981
27.86454729324017
28.84052603262842
27.86403974008474
28.84056706257118
27.86433195415836
27.86392632903565
28.84045407241448
27.86353624926387
28.84055584453442
27.86425127879155
28.84051796064059
27.8639819173775
27.8633888829634
28.84036091644639
27.8628951869069
28.84050394152922
27.86388316410407
28.8404581220372
27.86356295964838
27.86271476702044
28.84024960473196
27.86213917779257
28.84044180049358
27.86344967894856
28.84039112928718
27.86310004450497
27.86136164038602
28.84032570560287
27.86265224743012
28.84022026085797
27.86194122808891
28.84037416289038
27.86298356843877
27.86461019539117
28.84062661503773
27.86478015625411
28.8406089832665
27.86463779262131
28.84057880787519
27.86441676938649
27.86458645558122
28.84057941188995
27.86441956943612
28.8405688709866
27.86434470267513
28.84053557369435
27.86410623898289
27.86436047029758
28.84054551498244
27.86417531473753
28.84052335453291
27.86401959226096
28.84048378335984
27.86374127777709
27.86411198953416
28.84050995883189
27.86392287811808
28.84046981586396
27.86364372913153
28.84042685016111
27.86334543033852
27.86369298486773
28.84037218763923
27.86296899140254
28.84050129951055
27.86386183250009
28.84041259057955
27.86324693652753
28.91799308928716
28.40754924065153
28.36054929087636
28.91882618638115
28.41119879875361
28.96027836165177
28.40412332179502
28.42061006184973
28.91929113285809
28.41918624994661
28.92044216637697
28.42265327686409
28.91995760464948
28.420402472546
28.41219657389904
28.91897410114048
28.41583518477769
28.91776652369972
28.40614649957198
28.91976437425464
28.4191220438566
27.86516899289538
28.84059730002037
27.86454797796016
28.84062461502436
27.86473638512445
28.84059006665913
27.8644951616528
27.8644544143267
28.8405353650664
27.86410447316736
28.84057608340105
27.864394086163
28.84052210649594
27.86401067879416
27.86395835564874
28.84043360809481
27.86339578309999
28.84040747124176
27.86321611545892
28.84049899391613
27.86384877359115
27.86315493900711
27.86182445763149
28.84025775354986
27.86219990051005
28.84036719136126
27.86294086905611
28.84020175798763
27.85917268551414
28.83979934063769
28.84019501737453
27.86177897079133
27.86005029843779
28.83993394436049
28.84012613843656
28.91988899039436
28.41994935712173
28.9190304234611
28.41494914248458
28.95843207025269
28.68992400105713
28.95927335363491
28.69559441652602
28.40911450353414
28.96025689199771
28.40245324657918
28.60093622473707
28.33652970786428
28.34715659072046
28.60804697243962
28.95960250524233
28.69783404556362
28.70116454216241
28.95876760489569
28.69218660711704
28.95949985214638
28.69713148713257
28.6150998648445
28.35793042892735
28.35368981193516
28.60377413297875
28.34076823688265
28.35010811850648
28.60998396553269
27.99141852215437
28.24941005644008
28.26090526655693
28.08576819773231
28.18268772947162
28.10298694207323
28.09767659285243
27.99663870297984
28.25399062725566
28.26412683633223
28.09669976522924
28.95705423503078
28.68071022314742
28.95811108751028
28.68777038211325
28.31226740197847
28.58944259362656
28.59824420454657
28.33255911569675
28.60460806294686
28.33214069025492
28.59399441966034
28.60936016617864
28.34680515730561
28.60146046499806
28.33732422511395
28.6928564153818
28.95760271412938
28.68436725740272
28.95942558811916
28.69663317457806
28.95849316007935
28.69033956709262
28.22346819447482
28.04874783617072
28.03935895732862
27.98660317804994
28.24513774911863
28.0862158392714
28.15779907033275
28.07155819097156
28.26052256278742
28.08916802501429
27.99239119166971
28.25027046906966
28.84056106225944
27.86428304955919
27.86383501599472
27.86467480560731
28.84057728362145
27.86439958054089
28.07270491315216
28.41099319226741
28.92071114596995
27.7664719071393
28.07691652099374
27.76801871957782
28.9213846837908
27.77542210547253
27.85785901251856
28.84001298450934
27.86055695140213
27.86118303507982
28.84031111210735
27.86255280757078
27.86364359990782
28.840360108686
27.86288617974548
28.96063202296199
28.36478149586931
28.35472535706508
28.95668510215611
28.6782534120916
28.30702880163319
28.58638440849165
28.33951986238028
28.60299291315212
28.32888840426564
28.59141874768688
28.95867825802753
28.69157191474908
28.95729429534511
28.68230457138273
28.23842115506135
28.27556708387591
28.24288641115395
28.23431566861866
28.25449231073365
28.25272710793977
28.25703258374081
28.2542330222247
28.24411945396098
28.24859003757053
28.23676449306456
28.25264527018673
28.2536720183492
28.24749537083497
28.24036203474947
28.23230577007429
28.25259651498701
28.28019448322938
28.26912843774723
28.6780290598536
28.02754338417183
28.02744386022174
28.02746841501401
28.67800225833913
28.0275578575811
28.67803453460349
28.02749814952231
28.67801153030234
28.67802159108455
28.67804989485593
28.02760896993732
28.02758148245206
28.67804176534282
28.02759174380646
28.67801570462144
28.02750960630906
28.67802356439199
28.02753425885846
28.67805174691429
28.02761148565475
27.86473750100847
28.67798479752728
28.02741801727698
28.67800354016129
28.02747488292679
28.67801606520684
28.02751099095442
28.02746592711685
28.67801633248219
28.02751346245137
28.6780307546235
28.02754642169558
28.67804301322857
28.02758555027628
28.51518399294236
28.5152137738242
28.84057393888987
28.84059142720002
28.51522514067128
28.51517059271229
28.84057821672255
28.51496319565565
28.51500725570138
28.84049857603855
28.84052785018162
28.5150283143849
28.51493861160079
28.84050660294623
28.51524490769755
28.51526450043184
28.84060858747602
28.84059254291006
28.51527829551236
28.51522901287999
28.84059763420133
28.51501423959554
28.51491504330038
28.84050280709443
28.84051285753747
28.5149824951095
28.51495177378793
28.84052319182303
28.51530860744607
28.51531940259326
28.8406260677137
28.84061326282182
28.51533608735162
28.51529296377718
28.84061952521036
28.51513779217072
28.51505913804851
28.8405487584165
28.84055351568482
28.51510784899419
28.51509317337675
28.84056316066359
28.02748404583399
28.6780248412147
28.02753904556334
28.84061803027265
28.02739580513752
28.6780010845949
28.02746430976729
28.51524806826021
28.51518797293675
28.84058844728717
28.84059014115396
28.51522207686377
28.51521684619962
28.84059840690313
27.86471815088052
28.67799605756529
28.027453815253
28.02752204333034
28.6780192526749
28.67799562289055
28.02745399042884
28.02752724692256
28.67804446135179
28.02759071537713
28.0275812336483
28.67804209868557
28.67805632788894
28.02764182206149
28.02746496588365
28.67802580218986
28.02754208923553
28.84061772845213
27.8647418862163
28.6780082388312
28.02748961473426
28.51529694675428
28.51528913154356
28.84060512851271
28.84062077217167
28.51531639930442
28.51526860879571
28.84061527323288
28.51522030710482
28.5152033411414
28.84057702088706
28.84059625627662
28.51524063242587
28.51518031902204
28.84058981996069
28.51513737700979
28.5151092631641
28.84054657738338
28.84057001602195
28.51515810340482
28.51508538331126
28.84056338289234
28.51504026365445
28.84052666648525
28.51495270903127
28.84051003023206
28.51497248151346
28.51502339333904
28.8405321231392
28.02755501216592
28.67802925486108
28.67801721500895
28.02751844835001
28.67799936401033
28.0274674728893
28.67804282078693
28.02751352958649
28.67801670790377
28.6780030333131
28.84062676455041
28.02741514237131
28.8406127704252
27.86468406994935
28.51527948103973
28.51530400795081
28.84060660448533
28.84062076907389
28.51531220595633
28.51527104378492
28.84060922230874
28.18459961163729
28.18519852029297
27.85691922666909
27.8584929928429
28.18427603187489
28.18545054290187
27.8573529099844
28.42566479444272
28.92105435131856
28.42776494057517
28.9207440671032
28.51460605288855
28.51467281176627
28.84037322694071
28.84042431733261
28.51471288565368
28.51455846005287
28.84038899046898
28.51400101746283
28.5141028353507
28.8401542561316
28.84024905046544
28.51418505905163
28.51390125004729
28.84018761849132
28.1860815326091
28.18632380140471
27.85883817676066
27.86007521088499
28.18570801188432
28.18662476804916
27.85934127149056
28.42883906055854
28.42911692354634
28.92105179872158
28.92137123472169
28.42774620102406
28.43006688261956
28.92121253936378
28.41677679452444
28.91940983477108
28.91997698113832
28.42394524393164
28.92015107860285
28.4216766129885
28.9204895750089
28.51480464250756
28.51483958946752
28.84048002519895
28.84043820462907
28.51488221175239
28.51475503726827
28.8404545380281
28.51439157668373
28.51443326491768
28.84028663380017
28.84035811971211
28.51429778427178
28.51451288970498
28.84031784287018
28.51374167669875
28.51377679335506
28.84003876578096
28.84016486534734
28.51355609595364
28.51393269199152
28.84010097360468
28.5127332685848
28.51270988691265
28.83963505768163
28.83986073782652
28.51235588682223
28.51302570313305
28.83976234053196
28.42914217731151
28.42661295003362
28.92115515541607
28.92104254588591
28.42767698488334
28.42843992458847
28.92125889187029
28.51499098676161
28.51500562097962
28.84053294101625
28.84050115569703
28.51504437105749
28.5149468036003
28.84051557290105
28.5147228661208
28.51473299482526
28.840402632462
28.84045269097213
28.51464723570498
28.51479900680579
28.84042761508992
28.51434527915325
28.51433730626776
28.84025893442211
28.84033781403254
28.51421431556836
28.51445145975645
28.84030254896664
28.51383672299542
28.51377966256333
28.84005789235788
28.84017959317694
28.51361252421749
28.51397625562486
28.84013297895528
28.51305368975838
28.51244601201117
28.83981667555299
28.83973414669227
28.51264875515104
28.5128932216428
28.83987054118023
28.51514779972673
28.5151512717357
28.84057780273381
28.84055472570112
28.51518353211667
28.51511170239938
28.84056634649453
28.51497728818113
28.51497367125238
28.84049262243039
28.84052644407267
28.51492060937948
28.51502431297476
28.84051114560545
28.51475795644358
28.51473832208497
28.84041014294808
28.84045886019315
28.51466965212182
28.51481749136414
28.84043928870275
28.51449199775121
28.51444099379066
28.84030697723097
28.84037465525764
28.51435815074711
28.514562106522
28.84035144450035
28.51413012839456
28.51383885582234
28.84020832760823
28.8401620106048
28.51392286526015
28.51406141623039
28.84023121732064
28.51527145149507
28.51526950459735
28.84061346711074
28.84059694571248
28.51529432350694
28.51524360682905
28.84060584744604
28.51520176739174
28.51525958355346
28.84059484461182
28.84059191244575
28.51523664287307
28.51522759153653
28.84058371689265
28.51508788407566
28.51516255113932
28.84056288130685
28.84055685232677
28.51513634877389
28.51511778443125
28.84054722411224
28.51496218553829
28.51505486482669
28.8405277059934
28.8405168838167
28.51502726854664
28.51499417072097
28.84050648158473
28.51480792166892
28.51487226870792
28.84044703630308
28.84048484850289
28.51489554157811
28.51478040544797
28.84045606399185
28.69505258291534
28.95967653937682
28.69833440324218
28.70252676308555
28.95996870074083
28.70030969430727
28.96029629909303
28.75341382649608
28.75356054698513
28.91981908408662
28.92018030915514
28.75398451179328
28.75291009203832
28.91998851790025
28.75048851813535
28.75072648116524
28.91870727124369
28.91932725852564
28.75144831439637
28.74961012999187
28.91900357906887
28.02757538248349
28.67800913016794
28.02748800842239
28.67800346711266
28.02747222838151
28.6780362480781
28.02756176430314
28.51530442683755
28.51534920583482
28.84061990872747
28.84062750314231
28.51531010487976
28.51533229210217
28.8406170889041
28.51514677830788
28.5152030715766
28.84056995366996
28.84058126440032
28.51515813715138
28.515193259414
28.840566313417
28.51489445282972
28.51498759020182
28.84049104595935
28.84050874323525
28.51491558135765
28.51496959891769
28.84048412927705
28.51447097341865
28.51463484017141
28.84035820519535
28.84038688122352
28.51451315565377
28.51459963670536
28.84034420556992
28.18722832287047
27.8607249128076
27.86145655507969
28.18754183453138
28.18710372325093
28.18764215501949
27.86089393026
28.75126339009437
28.91958006292584
28.75219956147849
28.91926482430306
28.74694365449906
28.74946222816684
28.91822938541385
28.91831553967061
28.74819626449807
28.74845072645633
28.91780580706272
28.87263653881409
28.9599373887856
28.87370507478449
28.95991027760022
28.87324389880637
28.87316301026722
28.95973277102394
28.52356133747614
28.6123357793217
28.52413462458127
28.60872515088016
28.52587876756396
28.61039287432815
28.52157761606997
28.07128495060465
27.97978142293116
28.06549993815772
27.98568418730705
28.18768315920816
28.18519495574585
28.27038843583368
28.26999185375236
28.18477098879611
28.18207268668744
28.26746124610919
28.30381761111982
28.39990601052545
28.30997228106118
28.39421747148134
28.34439815314364
28.33733256422759
28.42744958163527
28.42911497300345
28.43130413192126
28.34013059945322
28.42492624585572
28.86961514839636
28.87005698906957
28.95849982839172
28.95905705585069
28.87062054608033
28.86895933987735
28.95871979425219
28.21454866875829
28.12640659955985
28.13313964991222
28.22104830346844
28.25790248253462
28.17183778533387
28.16900739169661
28.16370176723458
28.25025061647266
28.16693186389778
28.25328430209477
28.67802216716059
28.02752783779606
28.02742074708405
28.51499372113164
28.8405216229324
28.51493441055041
28.8404922373263
28.51500781757942
28.51491781331558
28.84051705423471
28.51525759418537
28.51529681059996
28.84060425744575
28.8406148017546
28.5152635081354
28.51529362774849
28.84060234498741
28.91830190585735
28.41758388790602
28.91953703595591
28.4275193658442
28.42625056029616
28.92112066367845
28.92067462958378
28.42820467594917
28.42517843745108
28.92102016103382
28.51259147284021
28.51224983355223
28.83976454552176
28.83953588336889
28.51273817036083
28.5120598783735
28.83971518091686
28.51393613144246
28.51375895504194
28.84018664365736
28.84008243895558
28.51399636411645
28.51368466825762
28.84016655572914
28.5147314827209
28.51485067726134
28.84043863097483
28.84046375994167
28.51475480890402
28.51483104867061
28.84043096555131
28.51529253452942
28.84061250385952
28.51525250317864
28.84060327866929
28.51526156424159
28.5152872572075
28.84061457991498
28.18997548553195
27.86465301458938
28.18990875705438
27.86459142379283
28.18992362558183
28.18996997799044
27.86466570945491
28.51530261065981
28.84060673487102
28.51528433818765
28.84062127665911
28.51531378273331
28.51527251824307
28.84061787925152
28.18999548700815
27.8646169383159
28.18996217971818
27.86471443407886
28.19001407658663
28.1899423558918
27.86468948160673
28.18979389972387
28.18984359753802
27.8643793761347
27.86450608007381
28.18986260646654
28.18977152212394
27.86441052454712
28.51513788334269
28.84055836639634
28.515068143227
28.84054667128764
28.51508624093315
28.51512229884801
28.84056337368991
28.18971707892888
27.86426790088074
28.18960109340389
27.86418491506326
28.1896311858035
28.18969111450861
27.86430392589414
28.51519833123806
28.84059537069612
28.51525084117371
28.84058758136191
28.51523760415348
28.51521341512806
28.84058278397859
28.18981785260888
27.86453511193968
28.18990567823212
27.8644788394435
28.1898835109294
28.1898430588174
27.8644438108005
28.51515442346858
28.84055284156403
28.84057421480162
28.51512528373215
28.51510536427361
28.51517172377572
28.84056867791545
28.18974464677715
27.86422898654751
27.86438221692885
28.18969615551688
28.18966299911357
28.1897734968863
27.86434217558278
28.18942698577115
28.18950002660481
27.86384626697474
27.86405179084408
28.18953498322458
28.18938624019218
27.86390253083714
28.51488980699779
28.84047311936829
28.5147729710299
28.84045530706788
28.51480687346509
28.51486099748886
28.84048256550396
28.18930543572252
27.86366900584567
28.18911223098939
27.8635456504337
28.1891682580163
28.18925775697566
27.86373475223263
28.51491992281408
28.84046690778811
28.51487837610447
28.84050256432658
28.5149509433273
28.51484217076504
28.84049242532879
28.18935530345748
27.86362606437392
28.18928652616161
27.86387450387728
28.1894066997436
28.18922662305384
27.86380355351912
28.51498898996616
28.84053504352195
28.84052369098097
28.51507349928494
28.51505048743072
28.5150156623244
28.84051501164961
28.18946975984692
27.86410273405488
27.86402279654148
28.18961004903643
28.18957180861162
28.18951401570658
27.86396162420105
28.18989591336121
28.1899286799719
27.86463073348388
27.86451516391402
28.18995247318092
28.18986917405582
27.86455233871254
28.5152608368431
28.84061405763801
28.51530546063911
28.84060794308906
28.51529137904377
28.51527687123294
28.84060284916352
28.18992293852008
27.86466342109312
28.18999970944996
27.86462621585028
28.18997730766982
28.18994957544922
27.86458960875892
28.51520775729399
28.840579915325
28.5151457681054
28.84057251303981
28.51518957086211
28.51516659659579
28.84058571704759
28.18983368053103
27.864423588998
28.18973027593146
27.86437042235154
28.18980328640997
28.18976499559561
27.86446581642007
28.51522608737726
28.84059739806897
28.84057921943679
28.51520853874675
28.51518757041276
28.51524445421655
28.8405915648246
28.18986434485429
27.86455091053373
27.86441897216365
28.18983496717353
28.18979997934305
28.18989501154125
27.86450837208055
28.1895116759634
28.18934723336851
27.8638764031322
27.86394675936108
28.18945900993655
28.1894080881042
27.86401955237975
28.51504587780144
28.84051469622603
28.51502408952933
28.84054359909859
28.51507715273226
28.51498822059439
28.84053346747645
28.18956420383609
27.86395988193387
28.18952803502883
27.86416411687976
28.18961616709205
28.1894685176751
27.86409220173841
28.51507041099279
28.8405325360186
28.51509708367474
28.84055782095839
28.51504289888848
28.51512099166461
28.84054145043555
28.18960494620477
27.86408533809922
28.18964926619214
27.86426508942312
28.18955923656723
28.18968904887289
27.86414859347191
28.51509794123064
28.84055915704032
28.84056553953362
28.51516892317133
28.51514500035129
28.5151252680205
28.84055034857438
28.1896507184887