/*--------------------------------*- C++ -*----------------------------------*\
  =========                 |
  \\      /  F ield         | OpenFOAM: The Open Source CFD Toolbox
   \\    /   O peration     | Website:  https://openfoam.org
    \\  /    A nd           | Version:  7
     \\/     M anipulation  |
\*---------------------------------------------------------------------------*/
FoamFile
{
    version     2.0;
    format      ascii;
    class       surfaceScalarField;
    location    "0";
    object      phi;
}
// * * * * * * * * * * * * * * * * * * * * * * * * * * * * * * * * * * * * * //

dimensions      [0 3 -1 0 0 0 0];

internalField   nonuniform List<scalar> 
36275
(
5.671399135491024e-07
3.320057040093863e-07
-2.122583646093046e-07
1.841582504101893
1.173597858595464e-06
1.887953959785937e-07
-4.965485869879162e-08
1.841585027099185
1.85848153903064e-06
-1.05828576682125e-07
2.860297027550619e-07
1.841590125481162
2.660326153446728e-06
-5.685993754439182e-07
8.16348077137257e-07
1.841597904001354
3.616398053309191e-06
-1.22540799963006e-06
1.575121899438047e-06
1.841608519413633
4.761424848334841e-06
-2.112169773496373e-06
2.610213636379047e-06
1.841622179059101
6.125423679736038e-06
-3.275798823274524e-06
3.985800952764426e-06
1.841639137210692
7.730187961310111e-06
-4.775042604040177e-06
5.784948768766069e-06
1.841659687313275
9.583884257617261e-06
-6.680737001690165e-06
8.112021411653603e-06
1.841684147385301
1.167316442555207e-05
-9.074749207803522e-06
1.109404212926093e-05
1.841712834762703
-1.204646967806323e-05
1.395232726119615e-05
1.487944625438871e-05
1.841746025182914
4.135176319823185e-07
4.262633402327417e-07
1.841574823444653
8.575535164971118e-07
3.027484895273846e-07
1.841577001418194
1.362065419123755e-06
4.945850049256066e-08
1.841581392507244
1.955764865164695e-06
-3.462717759762179e-07
1.841588066291088
2.665165070718046e-06
-9.037698441837689e-07
1.841597125111981
3.513195226756434e-06
-1.649323337181626e-06
1.841608700875469
4.517178749459468e-06
-2.616386924315356e-06
1.841622949424284
5.685941808651541e-06
-3.845479953918104e-06
1.841640041176774
7.015817595332816e-06
-5.383431620765806e-06
1.841660146258214
8.48538774766016e-06
-7.281466466921522e-06
1.841683411902054
-9.59143030584915e-06
1.004903856265753e-05
1.841709929609522
2.810227575133961e-07
4.879941434289734e-07
1.841567736375545
5.858483132806964e-07
3.836856175862217e-07
1.84156961393176
9.375639313713553e-07
1.704035016094222e-07
1.841573391119134
1.357734412459341e-06
-1.612151196156871e-07
1.841579111083647
1.865406787708854e-06
-6.252667867392747e-07
1.841586835841085
2.475822149661979e-06
-1.240556338021063e-06
1.841596642483218
3.198725648545774e-06
-2.030402015684646e-06
1.841608617181038
4.036174781380368e-06
-3.022105431682576e-06
1.84162284615136
4.979787867847041e-06
-4.245850888929906e-06
1.841639402558364
6.00748009979472e-06
-5.732721007652572e-06
1.841658328212041
-7.511453354564519e-06
7.079947981552695e-06
1.841679609041734
1.691305661948052e-07
5.130337322721322e-07
1.841561349625081
3.570597103793459e-07
4.26943631959673e-07
1.841562970980071
5.81835273593488e-07
2.513665035938538e-07
1.841566226117067
8.599443003583735e-07
-2.046317562441853e-08
1.841571138823085
1.205383156843709e-06
-3.98598839199145e-07
1.841577741983059
1.628551466873828e-06
-8.961991244623661e-07
1.841586073868903
2.134921357965215e-06
-1.529163234032727e-06
1.841596172604717
2.723458033333536e-06
-2.315471125128437e-06
1.841608068333862
3.384816217832183e-06
-3.274080583676782e-06
1.841621772564316
4.099426658625356e-06
-4.423206615270683e-06
1.841637264220999
-5.77780568947015e-06
4.835735365220796e-06
1.841654472169978
7.678136344588987e-08
5.001479950375461e-07
1.84155574782325
1.687174117289699e-07
4.310393171800068e-07
1.841557155646605
2.902424616246704e-07
2.904079499226721e-07
1.841559976775528
4.543166346889309e-07
7.348112978288465e-08
1.841564221172888
6.716052992243123e-07
-2.267449330336877e-07
1.841569901203414
9.495682825303759e-07
-6.192689265079275e-07
1.841577028332388
1.291445689987537e-06
-1.114686820023096e-06
1.841585608399655
1.695153742269362e-06
-1.724560057564987e-06
1.841595635239031
2.152144043289599e-06
-2.460464632803914e-06
1.841607082436013
2.646342710405132e-06
-3.33263214755311e-06
1.841619893121745
-4.348113569552733e-06
3.153374746106447e-06
1.841633967938073
2.648222587585707e-09
4.508936815383522e-07
1.841550996375403
1.786158095798562e-08
3.97480349218533e-07
1.841552231170056
5.754416246471088e-08
2.889884812856675e-07
1.841554701373738
1.32262919287908e-07
1.221479671061427e-07
1.841558407335192
2.505432023343801e-07
-1.077835345668613e-07
1.841563347339487
4.181314855896198e-07
-4.067927514308634e-07
1.841569514823384
6.372321746265971e-07
-7.817531233774574e-07
1.841576894518944
9.057459077673312e-07
-1.239895353969828e-06
1.841585457449291
1.216566382603953e-06
-1.788060258740221e-06
1.841595154751829
1.557031639567753e-06
-2.431694240686301e-06
1.841605910414501
-3.173570134318448e-06
1.908673395387337e-06
1.841617613200007
-5.464847433985089e-08
3.693285447409344e-07
1.841547144420467
-9.851808583446856e-08
3.304273330776832e-07
1.841548244333055
-1.214263322498328e-07
2.515270036362148e-07
1.84155044146631
-1.143855497713194e-07
1.304843786847003e-07
1.841553729687945
-7.020520462453916e-08
-3.577608462934027e-08
1.841558097915346
1.590996920133264e-08
-2.510751423410754e-07
1.841563527826665
1.457811357041801e-07
-5.196970953284289e-07
1.841569990780677
3.177271652291633e-07
-8.459903226052393e-07
1.841577443960219
5.261375837273283e-07
-1.233827576473143e-06
1.841585825812452
7.612183403129867e-07
-1.685911579264355e-06
1.841595050952606
-2.202929729107704e-06
1.009006409144717e-06
1.841605004841249
-9.637796599930969e-08
2.61612853767944e-07
1.841544227597545
-1.83154811625231e-07
2.36252787581429e-07
1.841545228556292
-2.512692421567105e-07
1.84870871448267e-07
1.841547225636639
-2.927338300651171e-07
1.061815249933665e-07
1.841550208529824
-3.011573693964011e-07
-1.644564536533645e-09
1.841554160190022
-2.722418832501652e-07
-1.408500845720495e-07
1.841559054950608
-2.042349607193369e-07
-3.139000108212342e-07
1.841564856053388
-9.830743709491013e-08
-5.232177714703945e-07
1.84157151265557
4.118523107592147e-08
-7.708390009606986e-07
1.841578956434354
2.066108607631957e-07
-1.057979488766028e-06
1.841587097986263
-1.384525709243486e-06
3.87200327994147e-07
1.841595823319587
-1.235818124355439e-07
1.355367740300614e-07
1.841542270427972
-2.382723989950287e-07
1.230332541722778e-07
1.841543206516924
-3.356796300198613e-07
9.771596864993626e-08
1.841545072583116
-4.083993162925105e-07
5.898416347076182e-08
1.841547855850663
-4.504837039724115e-07
5.98782945687174e-09
1.841551535787204
-4.578732476027743e-07
-6.230597054469482e-08
1.841556082501526
-4.287709761634527e-07
-1.470170531377125e-07
1.841561454685561
-3.639317375684771e-07
-2.492216563664572e-07
1.841567597190391
-2.668315423489182e-07
-3.697839829897031e-07
1.84157443837654
-1.436766094349983e-07
-5.091497996545506e-07
1.841581887442338
-6.671078409681288e-07
-3.209957887866087e-09
1.841589832008495
-1.369943864484659e-07
1.841541288187145
-2.654303668828678e-07
1.841542192180249
-3.772273942104221e-07
1.841543993463347
-4.652486890529266e-07
1.841546678120281
-5.237427268116019e-07
1.841550224018476
-5.487431796262275e-07
1.841554599349841
-5.384062648746944e-07
1.841559760779781
-4.932594472980141e-07
1.841565651304421
-4.163298121125471e-07
1.841572197963224
-3.131188616641385e-07
1.84157930961058
-1.913897197379217e-07
1.841586875011515
-1.568520728725635e-05
1.632954556580133e-05
1.963182373956689e-05
1.841783890210635
-1.235928645157606e-05
1.162993494453361e-05
1.841739689758938
-9.603561188813951e-06
8.137537539920475e-06
1.841703143868259
-7.346141865934751e-06
5.549069853828405e-06
1.84167325451326
-5.508453472146259e-06
3.640383104711178e-06
1.841649151716425
-4.012260879615744e-06
2.24745360689507e-06
1.841630108319386
-2.782591992882824e-06
1.251763576156822e-06
1.841615538729521
-1.748475362299142e-06
5.694823097433903e-07
1.841604990858741
-8.425334459561709e-07
1.43722060596022e-07
1.841598136317401
-6.074206102752648e-08
1.841594761587466
-3.325413175048197e-06
4.805642404360086e-06
1.463739970426752e-06
1.795585670774201
-2.086907344095227e-06
7.340152587805153e-07
1.795573953727711
-1.004988206296352e-06
2.81405654794359e-07
1.79556637081609
6.483811192184089e-08
1.795562646649877
-1.951124306756304e-05
2.480581088695273e-05
1.859367669919186e-05
1.795780228612521
-1.518492820988199e-05
1.307804893759185e-05
1.79572780948336
-1.168676811007499e-05
9.075840317967366e-06
1.795685178085144
-8.875642479435647e-06
6.167016820921687e-06
1.795650796283453
-6.620975036058865e-06
4.056916154127066e-06
1.795623393700943
2.537772040511719e-06
1.795601950612927
1.90502219825197e-05
-1.573378287666539e-05
1.804804452348756e-05
1.841788473635425
2.264088403200191e-05
2.419964337788443e-05
1.841836824185705
2.623086738487853e-05
3.117163177702093e-05
1.795844227365095
2.058916414426899e-05
-2.439916484252344e-05
3.15738511250444e-05
1.795824648465974
-2.997951110404786e-05
3.957451286212528e-05
2.199704783987401e-05
1.795872372293218
1.429219088322498e-05
-1.87316655066266e-05
1.795761504005867
-2.26873167716359e-05
1.510023975168796e-05
1.795797059209796
9.828555641694391e-06
-1.426455297235912e-05
1.795711003458315
-1.708538864331746e-05
1.029029937018452e-05
1.795737826933653
6.645468771070176e-06
-1.074560314233077e-05
1.795670844301121
-1.275916586156796e-05
6.916817697298571e-06
1.795691379306064
4.373324707278972e-06
-7.967232974964492e-06
1.795639209067914
-9.397453144020759e-06
4.545462415746928e-06
1.795655211603964
2.759435929686887e-06
-5.757444255644702e-06
1.79561468912182
-6.757589096713042e-06
2.883116889593913e-06
1.795627441394039
1.630852673229599e-06
-3.972091577222349e-06
1.795596214124522
-4.645874869972037e-06
1.733051360255305e-06
1.795606672926354
8.705422431331054e-07
-2.488007722680264e-06
1.795582993733511
-2.903399751291891e-06
9.646713592860179e-07
1.795591895161436
4.01805657497519e-07
-1.196909274050919e-06
1.795574472545511
4.937493270962113e-07
-1.394948931884529e-06
1.795582407833294
-1.593209333078598e-06
3.320728496008848e-06
5.477937049580196e-07
1.795589978734654
1.783337850724808e-07
1.795570297630988
2.700283678831184e-07
1.79557777046049
3.317510330523333e-07
1.795584880701156
2.961726934149164e-05
4.059707443914392e-05
1.795903282789496
3.216083299360562e-05
5.252041708545271e-05
1.795968010006966
7.415653584530446e-07
-7.662860240783395e-08
1.841590647090825
1.533688078019975e-06
1.039575322221168e-07
1.841593558325968
2.427356221801347e-06
4.781393913306172e-07
1.84159945532852
3.474265923991324e-06
1.072907153343302e-06
1.841608488398137
4.726745183421744e-06
1.93122350836188e-06
1.841620885737129
6.237022973203399e-06
3.115121463858312e-06
1.841636955725626
8.055376885265938e-06
4.709988386829919e-06
1.841657087947865
1.022644827605989e-05
6.830025931492401e-06
1.841681750627693
1.278271005934258e-05
9.624613348498594e-06
1.841711480697882
1.328476560061355e-05
1.841746860665623
2.235825806543454e-05
-3.609142798598244e-05
4.85816085172592e-05
1.795922262887984
2.265596805365178e-05
-4.231953359028823e-05
5.589981245917552e-05
1.795972908040149
2.124727145375794e-05
-4.913561599605397e-05
6.745895723745832e-05
1.796021201447438
1.707764376661901e-05
-5.584596379306909e-05
7.926256895749912e-05
1.796066338500722
-6.112316438629783e-05
8.87022363263876e-05
9.586405198547181e-06
1.796103485460321
1.533034033352489e-05
-2.694986190630274e-05
1.795833557765178
1.496456564987678e-05
-3.135620261412938e-05
1.795869790037905
1.367518206548216e-05
-3.57980555494795e-05
1.795904156798755
1.112274607846928e-05
-3.996968378384936e-05
1.795935095435247
-4.333637428886632e-05
7.45930418527261e-06
1.795960284247734
1.035813818315922e-05
-2.007495125798446e-05
1.79576493188619
9.95229081815894e-06
-2.312534933498787e-05
1.795791414349821
8.967834124242461e-06
-2.610647274591222e-05
1.795816197049582
7.323705829924385e-06
-2.883371082887101e-05
1.7958381052429
-3.106384812025197e-05
5.123674561190565e-06
1.795855831008098
6.916008580662413e-06
-1.486064906224156e-05
1.795711846719414
6.588332104116885e-06
-1.69732110642176e-05
1.795731578022391
5.890364646064646e-06
-1.900087652412123e-05
1.795749812039404
4.807174739131083e-06
-2.082710127079445e-05
1.795765734880937
-2.232168144189473e-05
3.393271014517229e-06
1.795778526231053
4.532151769706618e-06
-1.087061543634679e-05
1.795670971073712
4.300274234941201e-06
-1.233262949445272e-05
1.795685989237562
3.829616458706552e-06
-1.371786107995376e-05
1.79569971865493
3.120660855303204e-06
-1.495181854279352e-05
1.795711592316501
-1.595740843613488e-05
2.205107762318783e-06
1.795721063860611
2.882386149195121e-06
-7.776771425938019e-06
1.795639869538213
2.737151475526437e-06
-8.777803587612132e-06
1.79565159572509
2.437194408584683e-06
-9.716980450531711e-06
1.795662217467807
1.985933315694994e-06
-1.054660150105222e-05
1.795671329563618
-1.121912387634701e-05
1.40349386157364e-06
1.795678552187809
1.752801622342779e-06
-5.326809400821203e-06
1.795616775625696
1.677365696149678e-06
-5.990317262264163e-06
1.795626227595363
1.501033592468633e-06
-6.608242984921363e-06
1.795634723279143
1.22704575698587e-06
-7.150627411214756e-06
1.795641962353621
-7.588250413426475e-06
8.68644128917293e-07
1.795647669104063
1.004086222167189e-06
1.79560043184749
9.800860485777446e-07
-3.72509263995547e-06
1.795608364437889
8.889962752452258e-07
-4.099728122800338e-06
1.795615450171027
7.332232937258794e-07
-4.427090360353613e-06
1.795621455108858
-4.690297714931912e-06
5.216577169911115e-07
1.795626168044819
5.573399516609033e-07
-1.784665272317017e-06
1.795596979554063
5.195942431230046e-07
-1.9614983200773e-06
1.795603205094409
4.362148954058439e-07
-2.115603649327715e-06
1.795608460503729
-2.239242965786959e-06
3.134775194341243e-07
1.795612572045791
3.577980368388218e-07
1.795591438571172
3.456987277862918e-07
1.795597256447294
2.966978548506376e-07
1.79560215759291
2.15838062486029e-07
1.795605985504075
4.949773602422325e-06
4.751074239882856e-06
-2.126472132273899e-05
0.4491895946892086
-5.489725179215418e-06
7.467035106067943e-06
4.783665441154827e-06
8.010937239781579e-06
3.061626436955837e-05
6.885780604220544e-05
1.796037017638561
3.569953600462056e-05
1.79611119836985
0.0005166788171877823
-0.0002003342627162896
-0.0002514182516430152
-1.19856900043791e-06
3.456670074781966e-05
2.443188867365387e-05
5.760985037739363e-06
4.419952616074863e-05
1.830974350933157e-05
1.796177526892421
2.772955142783017e-05
2.11911751373528e-05
3.698407357005662e-05
3.427290664845262e-05
2.26268939371721e-05
1.796246883169779
-2.083287687473789e-05
2.514768214942342e-05
4.66401376031933e-05
3.641692969366672e-05
2.362054381951917e-05
-1.810522899564626e-05
3.404037014653749e-05
1.536572604859954e-05
1.796309385635077
2.289257608337062e-05
5.522256865844448e-05
-4.523094171553367e-05
-2.43851734544361e-05
-0.4491342606079201
0.4491257615783582
6.059911322943841e-05
2.110355149661379e-05
-0.4491498441938617
-4.910876786112798e-05
0.4491401428732544
2.358368497823448e-06
-3.575322574295833e-07
2.635413946504709e-07
1.841649095283593
4.925266253358683e-06
-4.971030373913831e-07
3.620534842561231e-07
1.841655505026665
7.931035603809791e-06
-7.933231317708777e-07
5.715414561145364e-07
1.841668713266053
1.165361815965643e-05
-1.283456321369715e-06
9.193253873719038e-07
1.841689540733959
1.645331596493124e-05
-2.031995905185487e-06
1.453066097388716e-06
1.841719334041074
2.282401213568868e-05
-3.14363181607192e-06
2.251047887664091e-06
1.841760126910344
3.147350050422182e-05
-4.78614375481893e-06
3.440763143613856e-06
1.841814898668602
4.34569769759124e-05
-7.231364832114905e-06
5.232775200754793e-06
1.841887980932142
6.041616053043896e-05
-1.093202580179605e-05
7.983106166464778e-06
1.841985700354698
8.50460591380721e-05
-1.667498074212115e-05
1.230450736559452e-05
1.842117430064398
-2.586773181406523e-05
2.532977465491415e-05
1.923730742560415e-05
3.673227218539687e-05
2.466878516543813e-05
3.51936720536794e-05
1.842297561757107
2.208650364671582e-06
-4.115282900683321e-07
1.841644545171327
4.607509744253646e-06
-5.835329521548675e-07
1.841650635900855
7.405267730276784e-06
-9.476633605253189e-07
1.841663169614122
1.085065669374907e-05
-1.547577539756101e-06
1.841682887519596
1.526085959143647e-05
-2.458115559710134e-06
1.841710998951726
2.106208286638851e-05
-3.799036015480957e-06
1.841749315722524
2.885050187480813e-05
-5.758275207140876e-06
1.841800463751305
3.948726284724071e-05
-8.630554461737894e-06
1.841868206969977
5.425566932675129e-05
-1.28802991253473e-05
1.841957931729588
7.518495754278905e-05
-1.924044660428249e-05
1.84207731694751
-2.887547645132927e-05
2.762668272418556e-05
2.746410998258342e-05
1.359676642054275e-05
3.75941508041211e-05
1.8422368739379
2.02414025111638e-06
-4.201460883082352e-07
1.841638755036115
4.216905573472363e-06
-6.148046911657118e-07
1.841644451582859
6.76173734588984e-06
-1.025659429387815e-06
1.841656153923502
9.873918849516014e-06
-1.699159278011316e-06
1.841674510063463
1.382244873488232e-05
-2.714140073718032e-06
1.841700569910422
1.896039899827058e-05
-4.195051567892822e-06
1.841735891028648
2.576939620746688e-05
-6.33397676471296e-06
1.841782702434656
3.492854440317535e-05
-9.426918140459971e-06
1.841844151082199
4.743311316110785e-05
-1.393528125917345e-05
1.841924669393933
6.484942170661856e-05
-2.060156046510218e-05
1.842030524945919
-3.072823401543027e-05
9.003000491045222e-05
1.842170682743074
1.815329170540281e-06
-3.831587431128234e-07
1.841631935018569
3.776180015940454e-06
-5.905353230210236e-07
1.841637183948329
6.039271312075667e-06
-1.026764749946312e-06
1.841647945025088
8.785144800819558e-06
-1.737858085620587e-06
1.841664767084097
1.223386893562133e-05
-2.801070991711639e-06
1.841688532020683
1.66659652070146e-05
-4.336600347317541e-06
1.841720532928953
2.245158536347798e-05
-6.526707894104695e-06
1.84176259241648
3.009240487201188e-05
-9.646577367598374e-06
1.841817235814297
4.028216824311024e-05
-1.411466319481475e-05
1.841887941338143
5.39864976449636e-05
-2.057645075934516e-05
1.841979496542301
-3.003948182857393e-05
7.249229343648249e-05
1.842098460201647
1.592875470635136e-06
-3.051778197467853e-07
1.84162431849677
3.308234915933752e-06
-5.160354836599925e-07
1.841629088563174
5.276478603975706e-06
-9.579797574642839e-07
1.84163884603349
7.644631977661289e-06
-1.674032901772315e-06
1.841654041533339
1.058670032024683e-05
-2.735566965699727e-06
1.841675392310911
1.431662791192485e-05
-4.251793426232664e-06
1.841703935906224
1.910488863474617e-05
-6.384832494274436e-06
1.841741108752913
2.529947097808655e-05
-9.373040895624122e-06
1.84178885595518
3.335058234139734e-05
-1.356672904534574e-05
1.841849779256606
4.383546559739044e-05
-1.948195159036629e-05
1.841927325649926
-2.787877081614524e-05
5.749689237634822e-05
1.842025988178669
1.366687584286965e-06
-1.947820958118955e-07
1.841616148360359
2.83415949583403e-06
-4.012052268447062e-07
1.841620429079931
4.508365478422447e-06
-8.322144604815139e-07
1.841629164676078
6.505920040772808e-06
-1.526132535761211e-06
1.841642714004429
8.960238013188508e-06
-2.545702109278897e-06
1.841661642266878
1.202850818801043e-05
-3.985173556207878e-06
1.841686754816564
1.589942529169678e-05
-5.981137113917169e-06
1.841719144414775
2.08008845850083e-05
-8.728414570808362e-06
1.841760252856076
2.700529898221828e-05
-1.250264038704283e-05
1.841811945891251
3.482816333554518e-05
-1.769099443238202e-05
1.841876594204784
-2.483148503571076e-05
4.461902853980396e-05
1.841957136639778
1.145256646701101e-06
-6.328760873996995e-08
1.841607664745204
2.371814133838396e-06
-2.590319856128639e-07
1.841611463596884
3.763996737255287e-06
-6.661709693334956e-07
1.841619196736396
5.412223600842478e-06
-1.317450959271807e-06
1.841631141366115
7.416111117507882e-06
-2.265744363683083e-06
1.84164772914265
9.887429933173815e-06
-3.588936665136759e-06
1.841669565145921
1.295240953951807e-05
-5.397065046518262e-06
1.841697452609615
1.675225714005857e-05
-7.842156641820355e-06
1.841732421769805
2.143973041768277e-05
-1.113108189826469e-05
1.841775758749101
2.716852992953842e-05
-1.554120783680989e-05
1.841829025515835
-2.143766933271592e-05
3.407337491746205e-05
1.841894053057032
9.352808520265061e-07
1.841599095111889
1.935074479768597e-06
1.841602433949404
3.065366023086528e-06
1.841609213761032
4.394985389254794e-06
1.841619642100383
5.996717340763041e-06
1.841634038257325
7.947843244431335e-06
1.841652842003114
1.032954980804502e-05
1.841676623492603
1.322421359756379e-05
1.841706091872602
1.670897032173126e-05
1.841742098104262
2.08433716176647e-05
1.841785624138026
2.564906718813505e-05
1.841837745341664
3.216198531618457e-06
0.4606387789992041
2.003709459760453e-05
-3.940594527965639e-06
1.700657343306504e-05
5.895265434158658e-05
-1.710088369318087e-05
-0.4606511649893683
-4.786414285867122e-05
0.4606401707881461
-4.70773015536423e-05
2.833774773691733e-05
3.625407179699836e-05
2.446994409416314e-05
3.63931879423518e-05
6.372920447833552e-06
1.821634918955373e-05
2.038612601173995e-06
2.089032519689282e-05
1.84235865988223
-4.401854774107162e-05
2.391281508490328e-05
2.651924704333286e-05
1.180745351309076e-05
3.502660127474577e-05
1.842253275409995
-3.988381866416283e-05
7.556321654018018e-05
1.842151354613861
-3.466239161967016e-05
5.676858372432611e-05
1.842057066852291
-2.929100734433541e-05
4.224771499984205e-05
1.84197287608125
3.108266975669999e-05
1.841899545059697
-3.366505128298003e-06
0.4492055824332866
-6.023114575369599e-06
-2.270440993219363e-05
7.598831234773007e-06
3.778302096899e-06
-3.869016543540937e-06
7.498992350314648e-06
5.723135302324045e-06
1.008675896816552e-05
5.153017446808683e-06
3.620861871676695e-06
1.210840078631117e-06
0.1123122206397316
-1.480537102668287e-06
-3.662439983277827e-06
6.67109238598057e-06
9.72950349377206e-06
0.4491787704383476
-9.566626673165198e-06
-2.075331624509082e-05
5.472137777601249e-06
2.522670071919419e-06
9.077706689647469e-06
2.826383215996805e-05
5.220494201582819e-05
-4.313738614322064e-05
-2.657538632919206e-05
-0.4491352215366469
0.4491244655349576
-5.57559676795325e-05
1.369894242497782e-05
2.123418834687474e-05
5.544793662742853e-06
2.495585737152806e-05
2.306382669448048e-05
8.630189342662131e-06
3.743131452424442e-05
2.938376255579023e-05
1.796249917992888
-4.682913166193536e-05
7.122601527258308e-05
1.796124263155747
-3.857999086379917e-05
5.150403572444579e-05
1.796014715956524
3.686672359763738e-05
1.795921763013212
1.045691181453543e-06
-4.325613824443764e-06
0.1123315134912861
4.789837660694822e-06
-1.10578812415273e-06
1.958169741809558e-06
-6.840767173929731e-06
0.1123797473822172
7.743932483360447e-06
-2.093739304402887e-06
1.336827455589542e-06
0.1123195644230872
-1.425431393947045e-06
3.930710370525503e-06
8.548338580514581e-06
3.674705417846932e-06
0.11240115381087
-3.67380487584711e-06
-7.615390013238846e-06
1.555781983488753e-06
0.1123073499491625
-8.00664137656781e-07
3.517251208497289e-06
6.006281132533053e-06
3.48022227507745e-06
0.1123676138865974
-3.369906287765908e-06
-5.445059266925743e-06
1.040407599695111e-05
0.4491687816321459
-1.253834039308546e-05
-1.864484651636514e-05
-4.486515899140842e-07
-5.169854114334821e-05
0.0001489702419132863
-6.886004034429433e-05
4.064251870219284e-06
2.969075708940941e-06
0.1123374606117178
-2.817517525937805e-06
-3.764129936513505e-06
3.78466574814336e-05
4.983217553398752e-05
-3.361339793193497e-05
-4.266668125273721e-05
-0.449151093626952
0.4491396948731143
2.760859847718694e-06
2.431741209884778e-06
0.1123127274611768
-2.54434856398654e-06
-2.946719707314565e-06
-6.430665143115098e-05
1.848106954366324e-05
2.755062248191442e-05
6.730214579475646e-06
3.57527701565219e-05
1.673262508486428e-05
6.927736438011589e-06
3.128066698598886e-05
2.505901851154735e-05
1.79626674796949
1.428430369084477e-05
1.530188507770317e-05
0.4491504933464263
-1.431622496980981e-05
-1.452334708237855e-05
6.247420180456534e-05
-5.155150378003702e-05
1.796120951035753
-6.874581059435065e-05
2.534174194745997e-05
2.088546824061122e-05
7.86364077498547e-06
3.340639183585514e-05
1.539495272687152e-05
3.328818761572094e-05
2.58081377381425e-05
4.771653487306571e-06
1.796243032323986
4.307180538570529e-05
1.796000780105828
5.059626633396875e-05
1.796089099692835
1.41900445294052e-06
0.4491792126172136
-1.555742672796974e-05
6.434704793167878e-06
5.88283099198228e-06
5.225102915014379e-06
5.947066838291049e-06
-2.441446336369502e-06
1.217636816423784e-05
-2.094443894651299e-06
2.893139909223538e-06
-2.136766527089787e-06
0.1123136883566715
2.213212558816814e-06
-2.824812568780899e-06
4.001143047079922e-06
-2.46047222570342e-06
0.1123339195501263
2.530114125311332e-06
-3.642859766711188e-06
5.392981778212741e-06
-2.64757539411191e-06
0.112356012280749
2.653800285090533e-06
-4.819226502297642e-06
8.063509238064713e-06
2.056345747864326e-06
-7.056904070861986e-06
0.1123925697801909
-2.219681984921486e-06
4.688948450479462e-05
3.300209802480637e-05
-4.383414464825819e-05
-2.740485409378013e-05
-0.4491320634442708
0.4491234108604729
-3.676185431089623e-05
2.894645348359555e-05
4.802547539035771e-05
-0.4491173975943603
0.4491054600371633
-2.827251738324329e-05
2.895957548393842e-05
-2.893768096597002e-05
-0.4491764521588628
0.4491661507423323
2.056088489895552e-05
1.575016810681507e-05
1.64252139246146e-05
1.276582380999036e-05
-0.4491957032467333
9.134303590174753e-06
1.413588569893626e-05
1.053613417026367e-06
8.856901813139584e-07
1.786974651683121e-05
1.886950658735315e-05
1.686872806331424e-05
2.109436287570099e-05
0.449185350098297
7.614726574885947e-07
0.1123109105930418
3.599537530790466e-06
-8.283661189253392e-07
-0.0002449495460342399
4.790143912924982e-05
1.792766576336202e-05
-2.318906612167049e-05
2.863067989108958e-05
1.79618234125698
0.0006114627516751181
-0.0002863584665173946
7.844225334147081e-06
0.4493324093337607
-0.0005458909399607804
2.218817070744247e-05
-0.4490904179646087
-0.0003515234799889331
-0.112908061378074
0.0004264560422241852
-0.0001035675969867257
0.1128475136070761
3.840651762889676e-06
-1.141535324569669e-05
0.1124572607079557
1.306975508471968e-05
-4.048665625425236e-06
-2.002295972763165e-05
8.136730336616126e-06
0.1125886254364817
2.325398146467224e-05
-8.394600572000495e-06
0.0001242528590019383
-0.0002447104267137709
-0.1127738340480562
0.0002866790914177898
-0.0001244148320292743
0.1127320273563783
6.664723726297394e-06
-1.5589022019806e-05
0.02832326524511071
1.142591911188077e-05
-5.806726530003734e-06
-0.000188712404573172
0.0002151435706355845
0.0002026507230190571
-0.02871470999378867
-0.0001933639459866386
0.02867899205069776
4.300183841990466e-06
0.1124186550097992
-4.279218195367325e-06
9.60929930622347e-06
8.320613370114965e-06
-1.376356658528953e-05
0.1125125496029628
1.555320396077817e-05
-8.087819802408237e-06
1.69878421175194e-05
-2.254586880132673e-05
0.1126635844702527
2.552257452722799e-05
-1.596196658548804e-05
3.633129457554506e-05
-3.671206993949659e-05
0.1129082212583348
4.119812320998038e-05
-3.253688348219329e-05
9.213006821215198e-06
1.724497203523521e-05
0.02844750374401608
-1.531486780310381e-05
-9.146671563246024e-06
3.997785041259787e-06
0.1123800837363902
-3.853336296338808e-06
6.625322048684941e-06
7.055245349444831e-06
-8.877144496210707e-06
0.1124433389712944
9.773596789302224e-06
-6.654002199586106e-06
1.266799704901769e-05
-1.293047229084536e-05
0.1125346926364994
1.413053653219581e-05
-1.161066989023408e-05
2.275532194641388e-05
-1.801163452730737e-05
0.1126629875204708
1.931295362306026e-05
-2.011911264730526e-05
2.28566087740642e-05
1.041572721028824e-05
0.1129688921863225
-4.602199634079224e-05
-2.344002696214323e-05
2.855579178886666e-06
-6.03011538101092e-06
4.837565579197435e-05
3.345944010899407e-06
0.1123460670125915
-3.162554490534542e-06
4.398381675373887e-06
5.43579833757858e-06
-5.553504973595858e-06
0.1123875236367482
5.980968154594709e-06
-5.04736903263662e-06
8.78674637811377e-06
-7.349410889398485e-06
0.1124421358218726
7.816714412893206e-06
-7.977823853536708e-06
1.389305586808185e-05
-9.12879409415685e-06
0.1125108445035448
9.493077898404023e-06
-1.229325734788928e-05
9.215421229057195e-06
2.688642805858565e-05
0.1126495008280432
-2.275213085142342e-05
-9.683561139704767e-06
2.626678257730382e-06
0.1123182845513906
-2.521547319117624e-06
2.858452118511306e-06
-2.382271681208097e-06
0.1123206247721065
2.498930527394787e-06
3.111630908789671e-06
-2.810320232546096e-06
0.1123434868436739
2.896666790817142e-06
4.411567703382233e-06
-3.064965910870187e-06
0.1123687071116688
3.083375542253434e-06
6.04349830950437e-06
2.437704118447842e-06
0.1124112418206487
9.242303631725757e-06
-2.62501333362044e-06
2.486066031994981e-05
1.422124885512214e-05
0.007610558388005927
-1.416670682008432e-05
-2.205259389081951e-05
2.27650645272889e-05
0.02873696656947654
3.776195986864296e-05
-2.179878818277913e-05
-3.337314328226505e-05
4.453495157386489e-05
-4.983395514651053e-05
0.02906162059254734
5.763743964461929e-05
-4.199719455219426e-05
-2.325770558125266e-06
4.874785964842577e-06
1.795615397819453
1.795608613049581
2.464042814970623e-06
1.841652232363948
5.149984857972055e-06
1.841658866851205
8.304104838430248e-06
1.841672551210493
1.22261639958765e-05
1.841694164456136
1.730931428782187e-05
1.841725154585
2.410022455128532e-05
1.841767721126942
3.339579915469816e-05
1.841825111839896
4.640726821675781e-05
1.841902098681679
6.505174523896884e-05
1.842005749089139
9.248290206434894e-05
1.842146705340582
2.630981405932209e-05
4.038790882868182e-05
2.744973823759489e-05
3.988311224728536e-05
1.842341346871649
0.4606467365503626
2.101308132752293e-05
2.570062758637796e-06
-1.632826017658462e-07
0.1122980198145971
2.181911183314251e-06
-3.898993323843512e-07
-4.455293177969469e-06
0.1123340283362193
4.985708750737668e-06