/*--------------------------------*- C++ -*----------------------------------*\
  =========                 |
  \\      /  F ield         | OpenFOAM: The Open Source CFD Toolbox
   \\    /   O peration     | Website:  https://openfoam.org
    \\  /    A nd           | Version:  7
     \\/     M anipulation  |
\*---------------------------------------------------------------------------*/
FoamFile
{
    version     2.0;
    format      ascii;
    class       volVectorField;
    location    "0";
    object      U;
}
// * * * * * * * * * * * * * * * * * * * * * * * * * * * * * * * * * * * * * //

dimensions      [0 1 -1 0 0 0 0];

internalField   nonuniform List<vector> 
12671
(
(1.000169994787554 1.579567398478937e-07 1.569992526130756e-07)
(1.000171380979175 4.848208649209015e-07 6.878372936077649e-08)
(1.000174182374731 8.444783468189419e-07 -1.130360421453428e-07)
(1.000178457019473 1.258553866605103e-06 -3.995040728599556e-07)
(1.000184291855972 1.748159261828572e-06 -8.078451631927173e-07)
(1.000191802046839 2.333345900988397e-06 -1.362225985667945e-06)
(1.00020112909732 3.032146137670302e-06 -2.094692245138218e-06)
(1.0002124367486 3.858989975501558e-06 -3.046151357540277e-06)
(1.000225903121963 4.822221705536802e-06 -4.267141850002989e-06)
(1.000241706983507 5.920398170940612e-06 -5.817920577999352e-06)
(1.00026000533527 7.13707327974661e-06 -7.767091134361136e-06)
(1.000165774757906 1.15170693257675e-07 2.187314550698453e-07)
(1.000166971258438 3.540118583298141e-07 1.417915074844012e-07)
(1.000169383720739 6.181962552790206e-07 -1.626059685084745e-08)
(1.000173050699759 9.240641375339154e-07 -2.639051398327287e-07)
(1.000178028963288 1.286996401240545e-06 -6.141859144347488e-07)
(1.000184391790902 1.720763478076441e-06 -1.085046089618657e-06)
(1.000192225953997 2.236576302273049e-06 -1.699668969750999e-06)
(1.000201626649799 2.841717923225233e-06 -2.486689201461116e-06)
(1.000212689400492 3.537625298191932e-06 -3.480048641093052e-06)
(1.000225497669642 4.317311829512239e-06 -4.71813913693991e-06)
(1.000240104776854 5.162108123563285e-06 -6.241701918436275e-06)
(1.000161880934333 7.826893776898284e-08 2.637281223370084e-07)
(1.000162912320773 2.414362398763378e-07 1.980098426904156e-07)
(1.000164987321547 4.242925349826662e-07 6.342173342555031e-08)
(1.000168129852688 6.392740745417086e-07 -1.463904506515088e-07)
(1.000172374331898 8.976918462006959e-07 -4.410682568701111e-07)
(1.000177763626487 1.209095592636442e-06 -8.336191391277056e-07)
(1.000184345796333 1.580444342880902e-06 -1.340419892688524e-06)
(1.000192169167821 2.015025314579625e-06 -1.981034247896398e-06)
(1.000201275161809 2.511077130421427e-06 -2.777677647027595e-06)
(1.000211688233918 3.060114418987591e-06 -3.754092540742526e-06)
(1.000223402341567 3.645039653012083e-06 -4.933524132811636e-06)
(1.000158371920048 4.710533215727391e-08 2.887580431175939e-07)
(1.000159262535559 1.465516705918417e-07 2.338353638625449e-07)
(1.00016105065626 2.614959504433615e-07 1.216644259445161e-07)
(1.000163749482416 4.015566452651043e-07 -5.240720055003064e-08)
(1.00016737729553 5.752238276026984e-07 -2.953458522694239e-07)
(1.000171955437754 7.892921365791527e-07 -6.163717700740614e-07)
(1.000177505290994 1.048182082393617e-06 -1.026797670237711e-06)
(1.000184043990567 1.353129534590585e-06 -1.53968554386727e-06)
(1.000191578578326 1.701243491703967e-06 -2.169211001713456e-06)
(1.000200098326236 2.084470825952193e-06 -2.929594505245778e-06)
(1.000209565088946 2.488572979172157e-06 -3.833440108856154e-06)
(1.000155294185885 2.138473397211908e-08 2.922639584342278e-07)
(1.000156067506214 6.837499453324129e-08 2.474950828492405e-07)
(1.000157617195613 1.278270204300594e-07 1.562810950938242e-07)
(1.00015994880568 2.073705705913221e-07 1.529363925598788e-08)
(1.000163069256829 3.135856845116469e-07 -1.803876266056242e-07)
(1.000166985035014 4.515204935921552e-07 -4.371542468388573e-07)
(1.000171699606116 6.241550810840464e-07 -7.626490554212272e-07)
(1.000177209918537 8.318115088627868e-07 -1.165393609025665e-06)
(1.000183501875467 1.071528560964699e-06 -1.654195734156591e-06)
(1.000190544715623 1.336448561935924e-06 -2.237261180217096e-06)
(1.000198284369767 1.615305922901104e-06 -2.920938250528466e-06)
(1.000152683651236 7.375706751445933e-10 2.743389437994877e-07)
(1.000153361946652 5.712281552038555e-09 2.38996057614962e-07)
(1.000154718895004 2.100159962701087e-08 1.671335852421631e-07)
(1.000156754730605 5.286404133693605e-08 5.643146683984421e-08)
(1.000159468581772 1.066170895764989e-07 -9.649859983985056e-08)
(1.000162856947327 1.862356557878507e-07 -2.959793335912788e-07)
(1.000166911584164 2.939341718223174e-07 -5.470499850398929e-07)
(1.000171616762184 4.297419021370456e-07 -8.551313687119686e-07)
(1.000176945870147 5.910949349840422e-07 -1.225536025040286e-06)
(1.000182857416383 7.724875093897441e-07 -1.662786458145981e-06)
(1.000189290572546 9.652494129185221e-07 -2.169716455773141e-06)
(1.000150567308165 -1.522039736255794e-08 2.366025632229207e-07)
(1.000151171542266 -4.265912153396179e-08 2.099733678431855e-07)
(1.000152378540674 -6.125772917467293e-08 1.559179221929868e-07)
(1.000154184954375 -6.567704936928654e-08 7.287470898209843e-08)
(1.000156584729045 -5.141121806781225e-08 -4.141143476417887e-08)
(1.000159567851728 -1.512201517091953e-08 -1.897695867918757e-07)
(1.000163118662712 4.503332955500604e-08 -3.754183302690279e-07)
(1.000167213739578 1.290938238673751e-07 -6.016977933697193e-07)
(1.000171819391653 2.350286456585666e-07 -8.716984160538474e-07)
(1.000176888855186 3.585474024831491e-07 -1.187770911651153e-06)
(1.000182359357567 4.930334182839795e-07 -1.550913424192179e-06)
(1.00014896473863 -2.68426675254564e-08 1.82002324442998e-07)
(1.000149514647084 -7.785395458288017e-08 1.634654173709479e-07)
(1.000150611808816 -1.209934367297181e-07 1.258839983283139e-07)
(1.000152250566296 -1.515127919981212e-07 6.826900657645649e-08)
(1.000154421566875 -1.654073632452498e-07 -1.079442212853542e-08)
(1.000157110731047 -1.597000571031546e-07 -1.130553539172479e-07)
(1.000160297898075 -1.327057543491685e-07 -2.404607016470467e-07)
(1.000163955183982 -8.42624715397755e-08 -3.949638753410282e-07)
(1.00016804511648 -1.590936567413365e-08 -5.782692070789777e-07)
(1.00017251865423 6.901482493121054e-08 -7.915070409049111e-07)
(1.000177313253564 1.653850808052079e-07 -1.034842916959007e-06)
(1.000147889420053 -3.441933563104176e-08 1.145623946839858e-07)
(1.000148403718818 -1.007816748736879e-07 1.036402064019767e-07)
(1.000149428957046 -1.5985401338611e-07 8.151543464371271e-08)
(1.000150958113739 -2.072368418111381e-07 4.764394859542176e-08)
(1.000152979908128 -2.392114512674187e-07 1.25286488086675e-09)
(1.000155477922014 -2.529906629055563e-07 -5.860270615679165e-08)
(1.000158429471683 -2.469433555467622e-07 -1.329568433228062e-07)
(1.000161804278437 -2.207792724527666e-07 -2.228190657221693e-07)
(1.000165563013818 -1.756767735238292e-07 -3.290258607549224e-07)
(1.000169655830801 -1.143325091175364e-07 -4.520565255059337e-07)
(1.000174021033497 -4.091004849023325e-08 -5.918173702533533e-07)
(1.000147349750357 -3.815493316779774e-08 3.909714840477012e-08)
(1.000147846431547 -1.120811626709827e-07 3.54903638304098e-08)
(1.000148836107936 -1.789895621082108e-07 2.818729864902015e-08)
(1.000150311128412 -2.346418799539831e-07 1.701466253964288e-08)
(1.000152259327362 -2.754485375750014e-07 1.72725849717453e-09)
(1.000154663225472 -2.987029712890501e-07 -1.797287406870191e-08)
(1.000157499015244 -3.027869846638474e-07 -4.240876327822154e-08)
(1.000160735386022 -2.873339537161108e-07 -7.189086241340127e-08)
(1.000164332268574 -2.53333876565694e-07 -1.066684566316448e-07)
(1.000168239610548 -2.031620974709602e-07 -1.46870134515735e-07)
(1.00017239632827 -1.405129967085825e-07 -1.924349541254227e-07)
(1.000280899000154 8.433943362012873e-06 -1.018760510389132e-05)
(1.000256508788785 6.037910396666475e-06 -8.089757809278567e-06)
(1.000236363647196 4.238291726904102e-06 -6.335436819343261e-06)
(1.000219901836547 2.892319759385414e-06 -4.889337421005766e-06)
(1.00020663608658 1.892160678047681e-06 -3.70805635025678e-06)
(1.000196160566586 1.157542006704941e-06 -2.746359910528807e-06)
(1.000188149321932 6.296574263786843e-07 -1.960053715270765e-06)
(1.000182351212273 2.664500749351052e-07 -1.307038662198658e-06)
(1.000178584081857 3.913467393221504e-08 -7.474063869967237e-07)
(1.000176729613672 -7.022237584160679e-08 -2.430384940258181e-07)
(1.000194081018723 7.563073538230145e-07 -2.405637745387064e-06)
(1.000187473744712 3.630430893766834e-07 -1.601278260101603e-06)
(1.00018319875212 1.18404270864695e-07 -9.147619971572706e-07)
(1.000181099485543 1.140809930777171e-09 -2.973337888450743e-07)
(1.000304089315113 9.726626890780602e-06 -1.311155442441294e-05)
(1.000274393385443 6.881533972475267e-06 -1.026513943119674e-05)
(1.00025027380985 4.794176856971405e-06 -7.950206009771418e-06)
(1.000230841570274 3.263101063259293e-06 -6.083553426799172e-06)
(1.000215366453875 2.143810138403225e-06 -4.584798081507246e-06)
(1.000203264514371 1.332755153787033e-06 -3.380656047461224e-06)
(1.000283432048944 9.687852810531348e-06 -9.498314647464309e-06)
(1.000310145825834 1.161158125243738e-05 -1.264369243772634e-05)
(1.000340406116207 1.361149575271204e-05 -1.656137357127332e-05)
(1.000329281288937 1.091299280786048e-05 -1.656006389778043e-05)
(1.00035637529015 1.186088132150182e-05 -2.057811360150986e-05)
(1.00029347059263 7.623011090678433e-06 -1.276060069501481e-05)
(1.000313615277073 8.186220733520003e-06 -1.558190173836795e-05)
(1.000264877474989 5.265150068340803e-06 -9.762194814217793e-06)
(1.000280053956299 5.603394631955652e-06 -1.176707261002456e-05)
(1.000242167189221 3.568464156920801e-06 -7.399454469751621e-06)
(1.000253772942217 3.777294639731336e-06 -8.829749855566528e-06)
(1.000224294047563 2.347945067500356e-06 -5.536342046537072e-06)
(1.000233330215022 2.484012329035906e-06 -6.555212724913686e-06)
(1.000210450976177 1.475349699922679e-06 -4.060555393671363e-06)
(1.000217646856553 1.571533279262887e-06 -4.779598297441806e-06)
(1.00020002645861 8.618891978353268e-07 -2.878560897297946e-06)
(1.000205925133497 9.368963491902634e-07 -3.373805911403403e-06)
(1.000192569888756 4.468926729467647e-07 -1.911271980169672e-06)
(1.000197588401269 5.111337619469689e-07 -2.233513203607419e-06)
(1.000187765097565 1.902843177470737e-07 -1.090212127160382e-06)
(1.000192237894776 2.49425127651778e-07 -1.271700791789138e-06)
(1.000196505566045 2.900849283269512e-07 -1.453827760085043e-06)
(1.000185411392377 6.772692091353797e-08 -3.541151698375501e-07)
(1.000189623061548 1.24875400007208e-07 -4.127067845812207e-07)
(1.000193630543891 1.676043414105839e-07 -4.713637080114199e-07)
(1.000373985135838 1.555452083890941e-05 -2.135234484557659e-05)
(1.000410897865699 1.720610277237455e-05 -2.724702069660019e-05)
(1.000174468951285 2.065367709219346e-07 8.333278304725193e-08)
(1.000176068665278 6.336912754102552e-07 -1.566422864710614e-08)
(1.000179309376544 1.103208624618671e-06 -2.204333925247157e-07)
(1.000184274382153 1.643687865539073e-06 -5.449774703309322e-07)
(1.000191090273414 2.28410123681266e-06 -1.01144579071151e-06)
(1.000199928353811 3.053569380492404e-06 -1.65153897122232e-06)
(1.000211005437483 3.980641866295806e-06 -2.508400771036828e-06)
(1.000224582743144 5.091755014306195e-06 -3.638935009689959e-06)
(1.000240960800348 6.408386273785837e-06 -5.116336950043875e-06)
(1.000260467142074 7.942259302367755e-06 -7.032348383617627e-06)
(1.000384680643027 1.235359978726715e-05 -2.50511942317283e-05)
(1.000413177393041 1.253711868004038e-05 -2.905897812114312e-05)
(1.00044092398322 1.222769270134443e-05 -3.449543586585249e-05)
(1.000466716227803 1.06740480063588e-05 -3.997293868154944e-05)
(1.000487642359062 7.426326635544156e-06 -4.432704163097198e-05)
(1.000334300147594 8.475360500503169e-06 -1.865126920095126e-05)
(1.000354824008823 8.437573284160062e-06 -2.179755509211477e-05)
(1.000374371316647 7.976587560664083e-06 -2.512830519098621e-05)
(1.000391960331916 6.906584762603215e-06 -2.834782472689896e-05)
(1.000406213909239 5.175372089883689e-06 -3.090518895509863e-05)
(1.000295397041845 5.750891095758862e-06 -1.391266661870324e-05)
(1.000310394268094 5.656750782860498e-06 -1.611880235180986e-05)
(1.000324444638493 5.269530820185165e-06 -1.831494919982002e-05)
(1.000336866696976 4.537431553246715e-06 -2.035603390908886e-05)
(1.00034690218505 3.466777032520741e-06 -2.201190011899053e-05)
(1.000265345431949 3.852643923570029e-06 -1.033597642746916e-05)
(1.000276506507086 3.761155893638776e-06 -1.186347940736555e-05)
(1.000286825807237 3.475499095390678e-06 -1.334536960515195e-05)
(1.000295838949815 2.979420784529445e-06 -1.469254795711406e-05)
(1.000303076859894 2.283943778053859e-06 -1.579453537341616e-05)
(1.000242232046072 2.528247983027686e-06 -7.612800150244865e-06)
(1.000250717914607 2.459959497315714e-06 -8.670367030559167e-06)
(1.000258478024159 2.264293164525854e-06 -9.680099881495639e-06)
(1.000265190585756 1.935753629424606e-06 -1.058547923342253e-05)
(1.000270545162667 1.483304257239079e-06 -1.132517452012709e-05)
(1.000224661485095 1.605776709099407e-06 -5.516978362989459e-06)
(1.000231281457149 1.565123211129341e-06 -6.24569026301605e-06)
(1.000237279218095 1.44113081704214e-06 -6.93338507024109e-06)
(1.000242425394542 1.231905600454658e-06 -7.543911255575654e-06)
(1.000246504836022 9.440049170875894e-07 -8.040394175290496e-06)
(1.000211623875732 9.708609106143608e-07 -3.876799061171366e-06)
(1.000216956393384 9.553516404289342e-07 -4.369266525682127e-06)
(1.000221750109225 8.852305716131247e-07 -4.82994776606856e-06)
(1.000225835285956 7.598098992434045e-07 -5.235866542090818e-06)
(1.000229056024811 5.836802072908439e-07 -5.564311922101434e-06)
(1.000202401763838 5.483277083622969e-07 -2.558443164742616e-06)
(1.00020687496154 5.52620924383616e-07 -2.874381627875629e-06)
(1.000210870996096 5.205666954764703e-07 -3.168038791316851e-06)
(1.000214257793265 4.518118169750432e-07 -3.42536028744626e-06)
(1.000216916074321 3.495026692798528e-07 -3.632706548901677e-06)
(1.000200452131397 3.077958458370855e-07 -1.630105891204875e-06)
(1.000203961858436 2.99941885172241e-07 -1.793262261206401e-06)
(1.000206924819713 2.662067900996299e-07 -1.935708286887965e-06)
(1.000209242978562 2.088002756297942e-07 -2.050159962659652e-06)
(1.000197326855975 1.920494753574534e-07 -5.280074770168686e-07)
(1.000200606209033 1.959341128468442e-07 -5.803249467684315e-07)
(1.000203368933118 1.78916821122848e-07 -6.259182394460693e-07)
(1.000205526753517 1.427487310614782e-07 -6.624979168218171e-07)
(1.000850416222298 1.140884815920772e-05 -5.500134048776988e-05)
(1.000450240119351 1.748433746154743e-05 -3.47453889229185e-05)
(1.000489939874817 1.846991787575582e-05 -3.539276517373227e-05)
(1.000530005926397 1.957017203980424e-05 -4.73849410125437e-05)
(1.000569994364791 1.735041506252546e-05 -5.749633676153808e-05)
(1.000603942813531 1.063857263734464e-05 -6.524483123721659e-05)
(1.000714083072248 5.267017189854112e-05 -0.000118879893933702)
(1.000747465698113 4.901425353772512e-05 -0.0001298318119414984)
(1.000206589058211 6.568400325502971e-07 -1.791558613477782e-07)
(1.000210115688655 2.028598538127649e-06 -2.478336120137028e-07)
(1.00021738475311 3.580667626001827e-06 -3.937109386422616e-07)
(1.000228852219433 5.45461179088581e-06 -6.354178004277021e-07)
(1.000245267230745 7.82819120180823e-06 -1.005306346725558e-06)
(1.000267763412722 1.093930888744057e-05 -1.556157606676077e-06)
(1.00029800599575 1.512264940489313e-05 -2.373146220872621e-06)
(1.000338425195268 2.086923112431866e-05 -3.595425009823368e-06)
(1.000392590048672 2.893018418611906e-05 -5.456288067596654e-06)
(1.000465829878733 4.051335030384464e-05 -8.359467723208618e-06)
(1.000566372442401 5.764432131666275e-05 -1.301106901161406e-05)
(1.000204088080921 6.151413482507052e-07 -2.218443892138375e-07)
(1.000207438821235 1.898400030337264e-06 -3.117219202322552e-07)
(1.000214335804614 3.3457337793785e-06 -5.022076416668405e-07)
(1.000225190721152 5.084541285206134e-06 -8.166443828462183e-07)
(1.000240676142795 7.272438222664399e-06 -1.29522446085674e-06)
(1.000261801584535 1.011646938480535e-05 -2.002692643717175e-06)
(1.000290033873924 1.390138301400467e-05 -3.041659316291652e-06)
(1.000327482953358 1.903306444103232e-05 -4.575553642799257e-06)
(1.000377185630491 2.61087742129155e-05 -6.868939882488049e-06)
(1.00044352955233 3.605110297256632e-05 -1.036021942684721e-05)
(1.000532826394804 5.054111428498022e-05 -1.579131007723969e-05)
(1.000200905657064 5.637525898334745e-07 -2.399060705147116e-07)
(1.000204039109929 1.738222311888111e-06 -3.456743200177867e-07)
(1.000210477607682 3.057712218920505e-06 -5.692277275178816e-07)
(1.00022058097307 4.633272945670061e-06 -9.365586972620659e-07)
(1.000234932916029 6.599784073180178e-06 -1.491996817335041e-06)
(1.000254400911483 9.130501355989768e-06 -2.305986802896291e-06)
(1.000280229329132 1.245790051739142e-05 -3.488149607265522e-06)
(1.000314180567891 1.690526196968571e-05 -5.208886327557092e-06)
(1.000358748567048 2.293892319429637e-05 -7.735263572116145e-06)
(1.000417489743121 3.127232403136039e-05 -1.149288665463016e-05)
(1.000495584821451 4.313617982703557e-05 -1.719337801977027e-05)
(1.000197157363139 5.055956575775313e-07 -2.3172254667112e-07)
(1.00020004413804 1.557316882176331e-06 -3.476942343490422e-07)
(1.000205963699333 2.733746391092023e-06 -5.920454363463845e-07)
(1.000215220709345 4.12881615876392e-06 -9.914473159197591e-07)
(1.000228305291151 5.854101966985148e-06 -1.59092626887394e-06)
(1.000245937299625 8.049025422291426e-06 -2.461053436738227e-06)
(1.000269133605417 1.089480851022778e-05 -3.709812881667834e-06)
(1.000299307093398 1.463426783542038e-05 -5.501969858093775e-06)
(1.000338410614653 1.960034529936549e-05 -8.091330130958102e-06)
(1.000389144478204 2.625519872043385e-05 -1.187827246859054e-05)
(1.000455238111459 3.522618849748498e-05 -1.752914880064248e-05)
(1.000192971528087 4.436390568081942e-07 -1.985586239018106e-07)
(1.000195594483019 1.365030744269849e-06 -3.192031173118289e-07)
(1.00020096091808 2.390967956473454e-06 -5.725224540607505e-07)
(1.000209320895779 3.598717801251682e-06 -9.841993229447392e-07)
(1.000221072880179 5.077692019311278e-06 -1.59710710309942e-06)
(1.000236794191526 6.93594022381438e-06 -2.477421281173482e-06)
(1.000257285781952 9.30837993800407e-06 -3.724482804340125e-06)
(1.000283635094002 1.236726196113377e-05 -5.48642834516035e-06)
(1.000317301405859 1.633489548890919e-05 -7.985016992353963e-06)
(1.000360226435067 2.149744040735469e-05 -1.15553083697673e-05)
(1.000414962522052 2.822254002091979e-05 -1.670718826255809e-05)
(1.000188481679406 3.806424306369524e-07 -1.442192067528301e-07)
(1.000190835125321 1.169997197381176e-06 -2.645886668334098e-07)
(1.000195638566154 2.045000324395035e-06 -5.164021782535971e-07)
(1.000203091069774 3.067639202958881e-06 -9.231246454423682e-07)
(1.000213506504777 4.307550651633777e-06 -1.523443002397666e-06)
(1.000227332779873 5.845672018901553e-06 -2.376048168353386e-06)
(1.000245178865588 7.778336908743634e-06 -3.567106618089259e-06)
(1.000267850272527 1.022157171427349e-05 -5.221573692240174e-06)
(1.000296392663559 1.331471956116387e-05 -7.520010413188972e-06)
(1.000332140260804 1.722152133518604e-05 -1.072296519852796e-05)
(1.000376758707056 2.21272019846153e-05 -1.520488149572772e-05)
(1.00018381979822 3.189706840944709e-07 -7.444318400534604e-08)
(1.00018590794486 9.795555224314239e-07 -1.904530420550669e-07)
(1.000190159297409 1.708912842081794e-06 -4.322265662927926e-07)
(1.000196727574695 2.555711234748713e-06 -8.202644697210654e-07)
(1.000205852388749 3.572878369832326e-06 -1.387917251815945e-06)
(1.000217870105006 4.819288621542646e-06 -2.184839486926345e-06)
(1.000233228099275 6.361228498301723e-06 -3.282173700125598e-06)
(1.000252501584521 8.273183027468275e-06 -4.779972465181382e-06)
(1.000276410867878 1.063702571441846e-05 -6.81741988999253e-06)
(1.000305834335632 1.353810964406923e-05 -9.586212193036094e-06)
(1.00034180819279 1.705676395113846e-05 -1.334687145243082e-05)
(1.0001791108684 2.604893619702478e-07 3.848365608046853e-09)
(1.000180945837402 7.994358351153487e-07 -1.047085127100748e-07)
(1.000184672362977 1.39269563076867e-06 -3.300895271146489e-07)
(1.000190405503856 2.077816706355011e-06 -6.895263786389758e-07)
(1.000198322432367 2.894240813400194e-06 -1.21066380924373e-06)
(1.000208667515724 3.883763558210645e-06 -1.933862919775445e-06)
(1.000221758161091 5.090520609382328e-06 -2.915496180646473e-06)
(1.000237990103305 6.560066731005124e-06 -4.232360357686389e-06)
(1.000257839690911 8.336828414585937e-06 -5.987219782720158e-06)
(1.000281858898687 1.045887507254206e-05 -8.315184645410594e-06)
(1.000310656112667 1.29488224790689e-05 -1.139010976621256e-05)
(1.000691501346139 5.054133975765342e-05 -8.257838146015786e-06)
(1.000713002654888 0.0001190001454288747 -3.935475822156591e-05)
(1.000601080576664 6.00157040630804e-05 -2.728716605454693e-05)
(1.000541664456423 4.7280193866479e-05 -2.627764883432998e-05)
(1.00048478167049 3.70591815301849e-05 -2.420260569381754e-05)
(1.000432262047851 2.82379291485996e-05 -2.150371450529354e-05)
(1.000385498994446 2.125653698303788e-05 -1.844809585500159e-05)
(1.000344852371674 1.580061639388855e-05 -1.542999540064032e-05)
(1.000886782917897 5.700225962843166e-05 -1.202926181774811e-05)
(1.000977555455308 3.24560931467469e-05 -1.274024701343582e-05)
(1.000826237395907 4.957216904565431e-05 -2.283565700092505e-05)
(1.000713709734944 0.0001062169173124683 -6.489848341844056e-05)
(1.000572700970078 4.848167775602789e-05 -3.585495546895805e-05)
(1.000500134244999 3.564836311584996e-05 -3.035062110694313e-05)
(1.000437475925679 2.611123030782551e-05 -2.52689711614599e-05)
(1.000384497177165 1.892489735333009e-05 -2.063657474785521e-05)
(1.001152690353385 4.062057956242126e-05 -1.018451742401433e-05)
(1.001584193009277 6.499282605901164e-05 -1.918063453896823e-05)
(1.001045379712101 3.365156861246597e-05 -1.30757815390037e-05)
(1.001775717958703 7.20293475741139e-05 -3.478584754548344e-05)
(1.000924843430201 4.540163723799142e-05 -1.115477453659947e-05)
(1.001475625575177 5.10298458160166e-05 -3.242664408925515e-05)
(1.00080847163859 5.192387068403137e-05 -2.715078862692035e-05)
(1.001205905775704 3.48850966412833e-05 -2.739215732418575e-05)
(1.000748358541188 0.0001030491242716827 -8.456811291454523e-05)
(1.000982129559745 2.543430677317534e-05 -2.355545455634106e-05)
(1.000582175568491 4.449011316601216e-05 -4.269428948271098e-05)
(1.000760551697205 3.20934040464908e-05 -3.50510178083913e-05)
(1.000498384284145 3.174460196431343e-05 -3.427756071336926e-05)
(1.000569677731632 3.947585942738386e-05 -4.622575544179359e-05)
(1.000429616898225 2.226404653382228e-05 -2.72628929663052e-05)
(1.000480648991902 2.608792448425936e-05 -3.587758215378794e-05)
(1.000826726074902 3.105086566234407e-05 -4.085097027380317e-05)
(1.000992668693583 1.938452218790129e-05 -2.706723066374199e-05)
(1.001174240325998 2.223921769289265e-05 -3.618462870433658e-05)
(1.00137181864792 2.362416748565469e-05 -4.834181434697976e-05)
(1.001698809425975 1.905497769483064e-05 -7.157592098900204e-05)
(1.000709016466822 6.729686973525952e-05 -0.0001073652416012459)
(1.000672679589495 6.37452725834043e-05 -0.0001003400351494127)
(1.000806082807699 6.450092230527983e-05 -0.0001428694194068876)
(1.000848918845922 6.034750322542114e-05 -0.0001601200677782695)
(1.00096095176587 7.084692690650891e-06 -4.047011188003521e-05)
(1.000537061811429 3.860079372111471e-05 -4.14581434036202e-05)
(1.000895457467679 -0.0002481691714526301 -0.0006895299340493202)
(1.006019541571214 0.003466859036283938 -0.0009124280842927612)
(1.00227805281246 0.0001091113580538797 -3.734588111888357e-05)
(1.00345564025659 0.0001928521510701286 -7.825482058952795e-05)
(1.00490675712497 0.002367995858536955 -0.001177125220058963)
(1.009661754788799 0.0004815385354619091 -0.0002361453435687967)
(1.023041610089519 0.006976280224370434 -0.007735189953661646)
(1.001932356679347 8.091467280134063e-05 -4.061255402231314e-05)
(1.002773380243423 0.0001306423726064926 -7.767305637914856e-05)
(1.004128297607131 0.0002142042013624346 -0.0001559754246660073)
(1.006327678824092 0.0003471859592792516 -0.0003260031860756932)
(1.014185327768309 0.0003272587776485784 -0.0006165174252553369)
(1.001587172455514 5.628937226917218e-05 -3.716507142605949e-05)
(1.002153313186492 8.3112056645274e-05 -6.489584638321539e-05)
(1.002971776336985 0.0001205901718184661 -0.0001149286008275279)
(1.004122687356885 0.0001663270763578508 -0.0002029559030225044)
(1.006871662995481 0.0002063086065997914 -0.0004811306161977952)
(1.001282903431097 3.771147043916429e-05 -3.080946035908119e-05)
(1.00165371384157 5.140030465338953e-05 -4.962446092478043e-05)
(1.002142494486751 6.758379444777873e-05 -7.935891233507215e-05)
(1.002757923585675 8.298340832470952e-05 -0.0001239588791158795)
(1.004001278320384 8.421827679513904e-05 -0.00023497542677564)
(1.001033890363823 2.504096579389313e-05 -2.43702985913654e-05)
(1.001055337627077 2.175177642029923e-05 -2.84249506150783e-05)
(1.001259815305501 2.543166631100861e-05 -3.982348284105611e-05)
(1.00148535727187 2.739844467448117e-05 -5.413718384991867e-05)
(1.001865883854639 2.256065071615579e-05 -8.192100766764692e-05)
(1.085344760616347 0.002014858764014188 -0.003559183532373689)
(1.024570359981124 0.001267684426409957 -0.0008437069510577501)
(1.036230489217718 0.001541834239314087 -0.002034877839191617)
(1.000210836250426 1.323822640751055e-07 -2.130342164508458e-06)
(1.000207007953609 9.118920946377996e-08 -6.880977962118458e-07)
(1.000208313416365 6.862718715435417e-07 -1.163292147375512e-07)
(1.000211963981757 2.120617786893848e-06 -1.594549148727965e-07)
(1.000219495733632 3.747160260271197e-06 -2.512014247090801e-07)
(1.000231397104082 5.717979383560235e-06 -4.036263180899526e-07)
(1.000248473818699 8.226061590950473e-06 -6.378027952336856e-07)
(1.00027195229418 1.153316068463197e-05 -9.884385515610091e-07)
(1.000303648524759 1.601348139942272e-05 -1.512275234189259e-06)
(1.000346241033543 2.222631849663101e-05 -2.303539646049857e-06)
(1.000403717864656 3.104296130934832e-05 -3.52302542031249e-06)
(1.000482128202483 4.387569752137897e-05 -5.453640952168875e-06)
(1.000590877089284 6.308730748251844e-05 -8.608866366162487e-06)
(1.000708869044726 5.272046701263576e-05 -6.676455335252821e-06)
(1.00087463811723 1.045073092555589e-05 1.778179626290132e-05)
(1.001175274985256 4.207130832951716e-05 -9.484037503873258e-06)
(1.001625166440387 6.8183241614614e-05 -1.77609372401529e-05)
(1.002356660245689 0.0001160044605971985 -3.505253205663216e-05)
(1.003649083835145 0.001691607385517659 -0.0003638191791321997)
(1.04142914687393 0.0024642140509655 -0.001906622125689514)
(1.063283385910182 0.001966885628251275 -0.00213133679223278)
(1.068916828422382 0.01832251127485091 -0.02376783224878581)
(1.047674684423128 0.02822099519738183 -0.03064686788233179)
(1.069909995116675 0.03004082810504717 -0.05085188613010148)
(1.09332305810049 0.002333123274113463 -0.004023287549411166)
(1.064337901709149 0.03267122174403314 -0.05502341770697227)
(1.000499373710185 4.9554988413367e-06 -4.405970827739989e-05)
(1.000415823851519 3.303678921434183e-06 -3.207526280050643e-05)
(1.000353896519083 2.19070558736656e-06 -2.307796470159844e-05)
(1.000308136966301 1.438264668091272e-06 -1.655974818794772e-05)
(1.000274276523736 9.323268969937744e-07 -1.184686995381675e-05)
(1.000249335633127 5.928487822660207e-07 -8.390798727030717e-06)
(1.000231282171196 3.667706681865554e-07 -5.795518660354891e-06)
(1.000218747456005 2.202419876624393e-07 -3.778264499220738e-06)
(1.000874251122532 7.172645367821369e-06 -5.652724208246595e-05)
(1.000665099624129 -2.228156480944907e-05 -0.000124035645424156)
(1.001736929947618 1.748228011958049e-05 -7.449764840879714e-05)
(1.000976192169211 5.489098424053027e-06 -3.994410970794568e-05)
(1.039848709279815 0.00901355063162539 -0.02005741523240623)
(1.014841302579345 0.0003283625238631434 -0.0006637660393578757)
(1.00727619910588 0.0002005662725066301 -0.000527383390333769)
(1.004166118037218 7.926571315467826e-05 -0.000251506352265985)
(1.001910775016592 2.074626819490998e-05 -8.546785905823556e-05)
(1.00086924788869 0.0001690422162301064 -4.164739970755928e-05)
(1.001070984220508 3.798608787511152e-05 -8.658732908461301e-06)
(1.001032463063224 0.0002671128074433232 -6.292155076196146e-05)
(1.001003255244039 3.341184448853982e-05 -1.112501596429668e-05)
(1.000966746781029 0.0002285235928123029 -7.979878616386771e-05)
(1.00085450898392 5.27530640586152e-05 -1.530780951873349e-05)
(1.000837056217746 0.000160291926184682 -4.785412385060988e-05)
(1.001108041171102 0.0002928114169698107 -7.482625443615195e-05)
(1.001457349387117 5.747639506842253e-05 -1.637452731505158e-05)
(1.001389461529578 0.0004068420180699628 -0.0001165020561289616)
(1.001074388909831 3.519600776842517e-05 -1.23939390704917e-05)
(1.001033653389056 0.0002544040854896765 -9.087979144686124e-05)
(1.00133784288909 4.880020646226781e-05 -1.882097232025906e-05)
(1.001279450531325 0.0003485490265393614 -0.0001350740523423563)
(1.001505566286031 0.0004568838488043806 -0.000135319938074912)
(1.002070623612855 9.543877833993588e-05 -3.142609891840254e-05)
(1.001945194996795 0.0006584776300243729 -0.0002170492418862844)
(1.001851904486327 7.781712186835183e-05 -3.460130648585636e-05)
(1.001748855081458 0.0005411400761496168 -0.0002408934848500606)
(1.001445974907758 5.471499227361372e-05 -2.182727975423406e-05)
(1.001379102511231 0.0003879101041547325 -0.0001553035062238935)
(1.001006018773181 0.0002413439442265444 -9.390583085445814e-05)
(1.000955775134124 3.801912769713467e-05 -1.360377662951095e-05)
(1.000933364935541 0.0001935196375193424 -8.978500396705114e-05)
(1.001294919580087 4.584705550865557e-05 -1.920024766335865e-05)
(1.001239783823801 0.0003286485688700465 -0.00013828752340393)