/*--------------------------------*- C++ -*----------------------------------*\
  =========                 |
  \\      /  F ield         | OpenFOAM: The Open Source CFD Toolbox
   \\    /   O peration     | Website:  https://openfoam.org
    \\  /    A nd           | Version:  7
     \\/     M anipulation  |
\*---------------------------------------------------------------------------*/
FoamFile
{
    version     2.0;
    format      ascii;
    class       volVectorField;
    location    "0";
    object      grad(Phi);
}
// * * * * * * * * * * * * * * * * * * * * * * * * * * * * * * * * * * * * * //

dimensions      [0 1 -1 0 0 0 0];

internalField   nonuniform List<vector> 
12692
(
(-0.7414272207449908 0.001611571785422523 -0.7811940352976997)
(-0.7410969152729063 -0.01317195002229626 -0.7809050848338495)
(-0.7349809131528229 -0.05275602532298085 -0.7724155444272349)
(-0.7373231690744532 -0.03550441557096125 -0.7753973349665144)
(-0.7395436936647735 -0.02218784958512256 -0.7786283054810523)
(-0.737922842020312 -0.03813314934471576 -0.7766052449972894)
(-0.7399364626511458 -0.02516061871932893 -0.7793967532640782)
(-0.7408944131857201 -0.01000965473665533 -0.7805530646558099)
(-0.7099399502167928 -0.1568468252366286 -0.7283592716364632)
(-0.7341564666149412 -0.05066264985703343 -0.7706985508073894)
(-0.7310136161655162 -0.06989319898188692 -0.7665872907279133)
(-0.7259001565588852 -0.09076557947836308 -0.758743842052693)
(-0.7299438662764706 -0.0685943134302653 -0.7642489294129603)
(-0.7117570416116573 -0.1523728451420195 -0.7342207473452379)
(-0.717903466559909 -0.1188910039724182 -0.7440552513890317)
(-0.7245652902437381 -0.09064208643231318 -0.7556062572899537)
(-0.7195083085936113 -0.1172361887306706 -0.7482878675623685)
(-0.3058591290282195 -0.03332896024625685 -0.6891790230646304)
(-0.3060893769480081 -0.02958781588809067 -0.6897099935168139)
(-0.3043201015306284 -0.0537417495059033 -0.6856114414103415)
(-0.3039193923921743 -0.05827295848483936 -0.6846821618982638)
(-0.3069640384557852 -0.005059025514782757 -0.6917110149619699)
(-0.3069918442923505 -0.001687750840793917 -0.6917669481488865)
(-0.3064706974575253 -0.02232128624784487 -0.6905887480400711)
(-0.3062938739426646 -0.02592158507678091 -0.690181368718773)
(-0.2905557680343016 -0.1882370496113812 -0.6532746106990246)
(-0.3000920003284109 -0.09627830694671942 -0.6757822333602038)
(-0.2993863960100964 -0.1029189482629082 -0.6741346656198596)
(-0.3030121211325555 -0.06789738739624909 -0.6825777538874025)
(-0.3034832879240742 -0.06298590217995785 -0.6836703996514296)
(-0.2978352522612936 -0.1174836138928871 -0.6705018257802596)
(-0.2986359861988688 -0.1099726651595093 -0.6723773879041894)
(-0.2929708178827867 -0.1639346574643819 -0.6590288307073962)
(-0.291799518952585 -0.1755639966459113 -0.6562469620098327)
(-0.6780720410987914 -0.05011745478776074 -0.8599181643657084)
(-0.6789907952882065 -0.04622937841946853 -0.8611033105675016)
(-0.6806109460529207 -0.03886623044752791 -0.8631959444863001)
(-0.6798349340453804 -0.0424831453102375 -0.8621955353959927)
(-0.5977662810353559 -0.007697943139099023 -0.7777478122932897)
(-0.5863041522405823 -0.01065369803769265 -0.840367081796531)
(-0.5064019264787173 -0.01106863211808792 -0.78943830002833)
(-0.586443002885669 -0.007591960621070936 -0.8405639262538337)
(-0.5065227784449368 -0.007886954857272685 -0.7896234458878059)
(-0.5976272642000121 -0.01081293539222102 -0.7775605232662125)
(-0.5978619047404714 -0.004603963921414718 -0.7778520208222363)
(-0.5865766615808169 -0.00151983734796771 -0.8407407383635116)
(-0.5066513255161271 -0.001577701587690982 -0.78978643527751)
(-0.5865336230852067 -0.004549853186619088 -0.8406874267748509)
(-0.5066064484399881 -0.004725809915297104 -0.7897383126776636)
(-0.5979136635557515 -0.001527125463612084 -0.7778912275416383)
(-0.6471474461347376 -0.1619118712454257 -0.8196122926236699)
(-0.6770802799114585 -0.0541640452426766 -0.8586338655246611)
(-0.6760075321029057 -0.05838393636973032 -0.8572490702576299)
(-0.6736156230388299 -0.06742122714909618 -0.8541537534561976)
(-0.6748559133787604 -0.06279705289988748 -0.8557562558630136)
(-0.6500722854806401 -0.1510098283251175 -0.8234732992162431)
(-0.6528223938748051 -0.1410070627815757 -0.8270697991897313)
(-0.6577927170359082 -0.123250125064821 -0.8335746289082802)
(-0.6553832728352383 -0.131781518652172 -0.8304341981940785)
(-0.3056047511358685 -0.03715995325361144 -0.6885908777531247)
(-0.305326635388562 -0.04110000019956891 -0.6879467061610317)
(-0.4396710423509029 -0.0391843689830022 -0.7807556327105657)
(-0.4400812874717554 -0.03542076495850593 -0.7814969270564075)
(-0.36835209511892 -0.03275840885048154 -0.7051428427336428)
(-0.4563685844360009 -0.02852346008867056 -0.7072768131688151)
(-0.4560806818368018 -0.03213669803110247 -0.7066948247466995)
(-0.3686088016130615 -0.02907744682059311 -0.7056927991680549)
(-0.3680679898202984 -0.03653045740640862 -0.7045295286289908)
(-0.4554134450623112 -0.03964758829992607 -0.7053149155851789)
(-0.3677539528104301 -0.04040852902869191 -0.7038547346105243)
(-0.455767839589731 -0.03584055266483271 -0.7060359184862964)
(-0.4407823458027683 -0.02818788087751853 -0.7827636613446429)
(-0.4404512254796176 -0.03175935030794829 -0.7821660865394646)
(-0.593885531340769 -0.04507690208760411 -0.7714710741861738)
(-0.5827918132286254 -0.04059389755165366 -0.8352218286358114)
(-0.5035111852570445 -0.04218016514039392 -0.7845491647548961)
(-0.582131519204237 -0.04437175186879566 -0.834253694828922)
(-0.5029690264663375 -0.04610582119467008 -0.7836305238139356)
(-0.5944994978720572 -0.04123981870674846 -0.7724441895441867)
(-0.5932891496636292 -0.04905180226256368 -0.770413594437934)
(-0.5806325377386594 -0.05234605781424424 -0.8320497479235373)
(-0.5017450021938084 -0.05439307163842533 -0.781534554406951)
(-0.5814142795374767 -0.04828473701968935 -0.8331969181652644)
(-0.5023860863113194 -0.05017236302330146 -0.7826245330433349)
(-0.5925658008598157 -0.05317650200883692 -0.7692573192298824)
(-0.6830541125426224 -0.02543676414417355 -0.8663487363521797)
(-0.6825376704731678 -0.02866067994570108 -0.8656837148229227)
(-0.6813176285422125 -0.03536436331086612 -0.8641096595493147)
(-0.6819601758782944 -0.03196668141585664 -0.8649375536987048)
(-0.3046872486875528 -0.04937768221277859 -0.686463403592916)
(-0.3050218475848303 -0.04516782381943666 -0.6872394578251727)
(-0.4392196852105853 -0.04306404034531672 -0.779938310073643)
(-0.4387247341466735 -0.04707288952174329 -0.7790433185554079)
(-0.3666233943813028 -0.05283024908383602 -0.7014036825970293)
(-0.4536612589391148 -0.05619254282638126 -0.701630647753407)
(-0.4541609115877347 -0.05183073902979002 -0.7026707100565699)
(-0.3661756387372307 -0.05727967083392727 -0.7004319833118868)
(-0.3670334976566959 -0.04854446292657588 -0.7022970020929361)
(-0.4550346714757197 -0.04357265264661855 -0.7045100191311412)
(-0.3674107918053298 -0.04440858971503765 -0.7031111799838978)
(-0.4546100148855785 -0.04762866779756496 -0.703637700479773)
(-0.4375981331467081 -0.05553655657616508 -0.7770038417738371)
(-0.4381851126657062 -0.05122563457854528 -0.7780656596444505)
(-0.5955128882288183 -0.03392000873088422 -0.7741294128296938)
(-0.5833922861146843 -0.03693644627829171 -0.836105696027502)
(-0.5040001096882457 -0.0383799200648497 -0.7853898062014699)
(-0.5044500722820082 -0.03469326180703274 -0.7861499565371227)
(-0.5950022215802412 -0.03752436700291176 -0.7733256682470723)
(-0.5839391755756559 -0.03338786377040603 -0.8369069017075106)
(-0.5959265074266775 -0.03041228698220077 -0.7748475246498578)
(-0.5052140568567715 -0.02760777079439668 -0.7874484002081498)
(-0.5848698783405855 -0.02656795632564686 -0.8382724574617164)
(-0.5048510271922563 -0.03110610646252322 -0.7868369774495092)
(-0.5844300791082571 -0.02993511556537588 -0.8376287505709142)
(-0.5963388505703144 -0.02699178674015687 -0.7754923586219131)
(-0.6850624885012272 -0.001455429826606663 -0.8689195485390753)
(-0.6850114745424346 -0.004356778380573219 -0.8688590049794066)
(-0.6847406622131678 -0.01020108842023173 -0.8685186656321917)
(-0.6849042979126234 -0.007269644807627266 -0.8687259214345553)
(-0.3069126845796861 -0.008441761006126302 -0.6915998511202563)
(-0.3068394232153555 -0.01184822880665018 -0.6914352327054685)
(-0.441866535637832 -0.0112999871982777 -0.7847168601542573)
(-0.4419733839993241 -0.008051745602592015 -0.7849060356322815)
(-0.3696005558695405 -0.004972721810662685 -0.7077412188420525)
(-0.4575269694993504 -0.001612247393865346 -0.7094593230745048)
(-0.4574852674281346 -0.004862726428729842 -0.7094263950736338)
(-0.3696355176174134 -0.001658573913126509 -0.7077839418519363)
(-0.3695390356407917 -0.00829992908185999 -0.7076391820468029)
(-0.4573127983102704 -0.011422364505933 -0.7091640452726202)
(-0.457412628585298 -0.008130774871582234 -0.7093300776119432)
(-0.3694527918849497 -0.01165013519532653 -0.7074757627947842)
(-0.4420821190340526 -0.00161114804766493 -0.785090897351662)
(-0.4420452757136532 -0.004825134127609676 -0.7850303942952216)
(-0.3066201879028165 -0.01878007393639716 -0.6909329516235858)
(-0.3067425988285463 -0.01529136129478359 -0.6912140999914824)
(-0.4417240863450498 -0.01457980362460978 -0.7844617364358188)
(-0.4415450583741581 -0.01789937072867733 -0.7841399010529611)
(-0.3690334482402904 -0.02193811100265506 -0.7066017748199445)
(-0.4566176754606877 -0.02498774853322312 -0.707796412263013)
(-0.3688355741286578 -0.02547398808551763 -0.7061804007911687)
(-0.4568402266509851 -0.02151963193640796 -0.7082408721835273)
(-0.4410746410849631 -0.02469412842126562 -0.7832916872994663)
(-0.4413288637083229 -0.02126799968972491 -0.7837499568603347)
(-0.3692013064289205 -0.01846073052883759 -0.7069584116705615)
(-0.4571855806282356 -0.01474594205224378 -0.708926225815848)
(-0.3693408861900375 -0.01503426303514989 -0.70724909818617)
(-0.4570266203731042 -0.01810843788954919 -0.7086203183949473)
(-0.6835087926978716 -0.02228375246590727 -0.8669357113553773)
(-0.6839045874253773 -0.0191930804408153 -0.8674449063050583)
(-0.6845197491285707 -0.01316039989794996 -0.8682359887220522)
(-0.6842410008294576 -0.01615451614436155 -0.867878408626565)
(-0.5972312873243597 -0.01713820671121305 -0.7769599035849235)
(-0.5861167235206726 -0.01374477471771057 -0.8400962180141394)
(-0.5062440384356058 -0.01428123111837665 -0.7891819117152643)
(-0.5974578830008708 -0.01395801032271923 -0.7773011461269375)
(-0.5060459283346561 -0.01753180427978352 -0.788855329253683)
(-0.5858795723592383 -0.01687238192689508 -0.839751493176199)
(-0.5969848608220359 -0.02036496139155591 -0.7765477219848649)
(-0.5055310496098 -0.02418567123137257 -0.7879892514607872)
(-0.58525653038197 -0.02327472773368996 -0.8388402527108575)
(-0.5966670945105375 -0.02364543600859644 -0.7760555797814001)
(-0.5058102394452751 -0.02083070893402519 -0.7884571395359706)
(-0.5855936208111583 -0.0200463846178656 -0.8393328640395732)
(-0.5544281286284989 -0.1691025991686387 -0.7930431970507201)
(-0.4809468197900651 -0.1756811578171913 -0.7442153189610036)
(-0.5714088640467858 -0.1716187191451062 -0.7286505682458386)
(-0.4389212866837797 -0.1813973359490826 -0.6648296206712617)
(-0.3518571607231453 -0.1850022887978244 -0.6672478394350844)
(-0.4179118938731814 -0.1794216005599828 -0.7410419023276499)
(-0.3007562978818849 -0.09000514632624425 -0.6773317339610232)
(-0.3013799651758581 -0.08405953182210447 -0.6787830439253717)
(-0.433896689058052 -0.08010130805830271 -0.7702921400538546)
(-0.4329871076107689 -0.08577084139681321 -0.7686419475264995)
(-0.3619640317306198 -0.09463333221108011 -0.691113241066547)
(-0.4482731853171067 -0.09923164474119445 -0.6896494654871208)
(-0.449108430098201 -0.09282616918756008 -0.6915320880960752)
(-0.3611912634455037 -0.101163964343792 -0.6893811708459795)
(-0.3626882197391533 -0.08846347333675889 -0.6927406376420101)
(-0.4506180882731847 -0.08104060032970303 -0.6949559309828928)
(-0.3633730416445025 -0.08261848250663553 -0.6942594808032997)
(-0.4498718323890329 -0.08677337039419757 -0.6933166007640835)
(-0.4309786269403867 -0.0980934347670171 -0.7649898777216163)
(-0.4320161089750221 -0.09175722025931525 -0.7668752841308986)
(-0.5902321721729999 -0.0666269276917886 -0.7651937071684941)
(-0.5768439218458796 -0.07042000089118347 -0.8264694438428469)
(-0.4986615940288259 -0.07317441931482928 -0.7762179185398397)
(-0.5778987237260864 -0.06559010365767698 -0.8280208572880783)
(-0.4995226290877429 -0.06815600384821681 -0.7776950763632109)
(-0.5892690149660185 -0.0715305845357958 -0.763619324575995)
(-0.5910312349228641 -0.06194574871533663 -0.7666526410842707)
(-0.5797898145528031 -0.05657283575794194 -0.8308067029607384)
(-0.5010613011938322 -0.0587857553511193 -0.7803495725079171)
(-0.5788771418548053 -0.06098069020299086 -0.8294660354532211)
(-0.5918707281337483 -0.05746974653052205 -0.7680082950057449)
(-0.5003141839088708 -0.0633662639994453 -0.7790741309877622)
(-0.6677182473339787 -0.0885204864601646 -0.846507350309562)
(-0.6693464136128251 -0.08280160532856241 -0.8486161512895462)
(-0.6722893923460355 -0.07228073679963747 -0.8524324680804777)
(-0.6708651531925078 -0.07739748923778625 -0.8505902770502675)
(-0.3025057365313682 -0.07303010454370146 -0.6814013204200247)
(-0.3019627805128299 -0.07840929712110974 -0.6801394462393099)
(-0.434745951874379 -0.07471692323044767 -0.7718348705834868)
(-0.4355389941034774 -0.06959183362226752 -0.7732718016348834)
(-0.3651704457107302 -0.06673514367431427 -0.698233218340521)
(-0.4531379094829022 -0.06073138335209333 -0.7004856662066326)
(-0.3656929617255565 -0.06190890290725912 -0.6993740905672708)
(-0.4525595327737265 -0.06546382882816267 -0.699263336952513)
(-0.4369629857072883 -0.06002256065591554 -0.7758525092845998)
(-0.4362768514390392 -0.06470074103291552 -0.7746105348102089)
(-0.3646123165962927 -0.07177996942425724 -0.6970014599720998)
(-0.4512986862889045 -0.07559500514223261 -0.6965054791008122)
(-0.3640118370806632 -0.07706596233435213 -0.695680887565535)
(-0.4519590970775793 -0.07041145656915813 -0.6979257242653927)
(-0.587264934466856 -0.08210856547787956 -0.7601109757772269)
(-0.5757176150845512 -0.07549535083687565 -0.8248030086673138)
(-0.4977539278689883 -0.07844755613647429 -0.7746266147406098)
(-0.4967695938877882 -0.08399948225451909 -0.7729278323463129)
(-0.5883602693348355 -0.07668400677302323 -0.761927959976467)
(-0.5745072002001551 -0.08083947506970714 -0.8230199227263354)
(-0.586240484059415 -0.08783808956932602 -0.7581590609820356)
(-0.494617512383237 -0.0960672204653422 -0.7691572867564748)
(-0.5718358316295042 -0.09245625336568064 -0.8190684588844329)
(-0.4957361789117272 -0.08986254383697521 -0.7711021150424744)
(-0.5732182616386542 -0.08648336126564699 -0.8211088863726131)
(-0.5850034002262139 -0.09389945510722709 -0.756069595657311)
(-0.2969810272140205 -0.1255000068222547 -0.6684959241792147)
(-0.2960710801388068 -0.1340784797155842 -0.6663573890587455)
(-0.4260912735944177 -0.127794654448903 -0.7560749361572319)
(-0.4274341336343589 -0.1196180289437316 -0.7585257148334763)
(-0.3595061847553825 -0.1154781450340709 -0.6855500926119233)
(-0.4474246238802472 -0.1060317204288557 -0.6875995917379343)
(-0.3603763634212342 -0.1080978404472181 -0.6875267161561768)
(-0.446496326064021 -0.1132670194983326 -0.6854372365164388)
(-0.4298728143238984 -0.1048197305358214 -0.7629739843093655)
(-0.4286920801693302 -0.1119776095780551 -0.7608240859235353)
(-0.3585893224400106 -0.1233556225790285 -0.6834306008102952)
(-0.4445359538699051 -0.1292529378957106 -0.6805895163736925)
(-0.3576117069660217 -0.1317858007182999 -0.6811721287600284)
(-0.4455601273375274 -0.1209899657377569 -0.6830780221042845)
(-0.6659851870759964 -0.09459217235448439 -0.8442504557784791)
(-0.6641286866297692 -0.1010515540500126 -0.8418419335880719)
(-0.6600400727295269 -0.1153256281245933 -0.836516368053408)
(-0.6621547120859826 -0.107947590417217 -0.8392654206465965)
(-0.5765078615358092 -0.1397294454327679 -0.7398904819667257)
(-0.5634250988674943 -0.128726587392308 -0.8065543095026849)
(-0.4879357077665402 -0.133744271773323 -0.7571903585789165)
(-0.5613864568185722 -0.1376367047031365 -0.8035180880219209)
(-0.4863214727320787 -0.1429994527280862 -0.7542839534458099)
(-0.5782350799334456 -0.1306967180252669 -0.7430741791799329)
(-0.5749723506596986 -0.1494974128906243 -0.7364125161227471)
(-0.5568979333146218 -0.1577177059667154 -0.7967836003593862)
(-0.4828275523837314 -0.1638568186843307 -0.7478182380775438)
(-0.5592209922181572 -0.1472707565759171 -0.8002601602023565)
(-0.5730638257575749 -0.16008213666388 -0.7327212109134617)
(-0.4846454612546533 -0.1530059140380207 -0.7511543673216828)
(-0.2940705472895769 -0.1532122781759153 -0.6616360115674301)
(-0.2951032040066744 -0.1432902816896583 -0.6640740722060637)
(-0.4246608861369307 -0.1365747790029256 -0.7534541235705696)
(-0.4231335113502737 -0.1460302398815008 -0.7506583049340907)
(-0.3543451726363528 -0.1611220501077274 -0.6733932107480727)
(-0.4400854731661567 -0.1691989423455889 -0.6685086655090536)
(-0.3531266833513295 -0.1725502288399106 -0.6704325952166036)
(-0.4412916494173942 -0.1580030390168201 -0.6718418271425449)
(-0.4197668004974917 -0.1673399206902305 -0.7444694512605314)
(-0.4215059958947971 -0.1562521929968328 -0.7476654631695335)
(-0.355490994725792 -0.1505857330619466 -0.6761674075364644)
(-0.4435132519002654 -0.1381254113247714 -0.6778680677983641)
(-0.3565850767247429 -0.1408376133461541 -0.6787504474312269)
(-0.4423941532572161 -0.1476775314923217 -0.6749954232033175)
(-0.5811935432435544 -0.1144872925484147 -0.7488293359402372)
(-0.5653275004040712 -0.1204509980679334 -0.8094021237374385)
(-0.4894260531991463 -0.1251481262045425 -0.7599202112216173)
(-0.4908573353276507 -0.1171435860292924 -0.762459980841547)
(-0.567119055251602 -0.1127453311932722 -0.8120604526450413)
(-0.5796403454777945 -0.1223024089725406 -0.7460690142118956)
(-0.5824675166055784 -0.1071796995101632 -0.7514208432795499)
(-0.4934466895037413 -0.1026542688502131 -0.7670691288685865)
(-0.5703662028855071 -0.09879724102954028 -0.8168839539947181)
(-0.5838570622364584 -0.1003352714140842 -0.7538211764963162)
(-0.4921798741111182 -0.1096624121033778 -0.7648466501123652)
(-0.5687915596786131 -0.105543537605933 -0.8145543198885319)
(-0.6742104033354611 -0.0009266230619532353 -0.7645628576490372)
(-0.6860066465364444 -0.001474659680891621 -0.8200962155655928)
(-0.6741760098786662 -0.005056289740793756 -0.7645413619175969)
(-0.7045596246765112 -0.002516907485799386 -0.749422870481945)
(-0.7413722975597469 -0.007371068320597379 -0.7811735371360512)
(-0.7045394153037156 -0.003371302167554262 -0.7494299689516888)
(-0.6859527378716251 -0.004431390217997181 -0.8200494261838929)
(-0.674047916097155 -0.006949220415616487 -0.7644538590748792)
(-0.685688675571225 -0.0103928631346705 -0.819735506905455)
(-0.7412619261280883 -0.004161923518758161 -0.7810334906907364)
(-0.7043276088181328 -0.009259365919643842 -0.7492179692747616)
(-0.7043881919645929 -0.008389619762419373 -0.7492933926842295)
(-0.6858416642346343 -0.007402468458397706 -0.819928591504001)
(-0.6739351657630933 -0.011110860230854 -0.7642795785199307)
(-0.669338934177987 -0.0472236786768358 -0.7569513228806961)
(-0.6991767736602563 -0.04951767158491955 -0.7410268687826278)
(-0.7358637708531698 -0.0428020852484511 -0.7732461763205735)
(-0.6796574927763086 -0.05108318347432648 -0.8111077174509698)
(-0.6804748666676651 -0.0471211419989306 -0.8122704667711793)
(-0.6994998076325493 -0.04759578308667734 -0.7416316326373632)
(-0.6687099041388285 -0.05244947740803445 -0.7557855982344999)
(-0.670068481556121 -0.04454622308713732 -0.758063328594851)
(-0.6819317365598855 -0.03961690121599755 -0.8143855507974895)
(-0.7365733988012308 -0.04519035913705049 -0.7746975125719521)
(-0.7008035180142398 -0.04020029170431916 -0.743755532219763)
(-0.6812389069273309 -0.04330289093375418 -0.8134062318369052)
(-0.7005264522027412 -0.04182040244593434 -0.7432489571950358)
(-0.6706017179381004 -0.03962423741983283 -0.7590436906876378)
(-0.672176251643387 -0.03023373376084807 -0.7615294771394685)
(-0.7028051344544076 -0.02669240329111129 -0.746945684225313)
(-0.7390405911181683 -0.03148555768004532 -0.7781651887205898)
(-0.6841408913647296 -0.02592892785788524 -0.8175628415314593)
(-0.7026173528027178 -0.0278753941737108 -0.7466138485874381)
(-0.6836771523489019 -0.02921487292159371 -0.816914062369306)
(-0.6725331212093947 -0.02575209598790919 -0.7621770095307349)
(-0.671663942518368 -0.03249919263683105 -0.7607776628764772)
(-0.6825743845190942 -0.03604754438380434 -0.8153331133496402)
(-0.7016710002349177 -0.03463946507028769 -0.7451026074575895)
(-0.7385464166268294 -0.02866373966695355 -0.7771832862722737)
(-0.7019030108109576 -0.03326342441657945 -0.7455189355532154)
(-0.6712210738819777 -0.03717542382738106 -0.75996888893376)
(-0.6831497733239242 -0.03258478409795878 -0.8161421050871074)
(-0.6732157500704561 -0.01929660632812496 -0.7632568686637103)
(-0.7033716169289236 -0.02144098055327772 -0.7478008757818624)
(-0.7403237502353005 -0.01599479168825244 -0.7797492547253277)
(-0.6845580208208996 -0.02271457240931775 -0.8181683137215753)
(-0.7035159321334725 -0.02040509149535955 -0.7480510949930328)
(-0.6729416996396029 -0.02362964451963424 -0.7627645163318073)
(-0.6849146413684127 -0.01956389736021138 -0.8186637167566504)
(-0.6735250582320887 -0.01728058027546999 -0.7636832748478311)
(-0.6854790258896388 -0.0134120088807282 -0.8194527466451708)
(-0.7040413994579809 -0.01432772211287668 -0.7488380522010887)
(-0.7406192548801489 -0.01908010021596901 -0.7803107129629675)
(-0.6737181356988701 -0.01305335497536752 -0.7640201611370223)
(-0.7039396032169012 -0.01525902148013972 -0.7486715560839613)
(-0.6852258376124138 -0.01646536228065039 -0.8191078489259114)
(-0.6459705158415404 -0.179897763264715 -0.7086371898159601)
(-0.6777702894812825 -0.162437853705846 -0.6970912621270107)
(-0.6534374157973895 -0.1648998885165288 -0.7690496939467159)
(-0.7074073252512368 -0.1747677873869513 -0.7253148772859632)
(-0.6509361133856307 -0.1770138889858466 -0.7647436572265435)
(-0.6478834516543257 -0.1657980712674371 -0.7131078063408931)
(-0.6771962070866191 -0.1730087438641439 -0.6945322597411672)
(-0.6671360249960872 -0.06100466668254991 -0.7531016798540077)
(-0.697984276054747 -0.05555618757258889 -0.7391159651029348)
(-0.733132465278208 -0.06094490739344476 -0.7697259337271254)
(-0.6787648774265266 -0.05520725127557106 -0.809767919971921)
(-0.6778146025216135 -0.05950693847653474 -0.8084057181720903)
(-0.6976143932242075 -0.05784671429940982 -0.7384029827823195)
(-0.6678672115795289 -0.0554074826743692 -0.754469658138924)
(-0.6661777431607471 -0.06430443123544284 -0.7515607230658711)
(-0.6756922876765569 -0.0687149925928125 -0.8052613955408172)
(-0.7321880291303796 -0.05921040620108475 -0.7677155700367136)
(-0.6958315624759692 -0.06694440049696855 -0.7353357098501623)
(-0.6767851979477798 -0.06400405724797574 -0.8068425516761918)
(-0.6962489286574878 -0.06420590982011064 -0.7361694467950654)
(-0.6653370196795702 -0.07035363600937487 -0.7499698572682979)
(-0.6621107183444394 -0.0848900015984427 -0.744261638104997)
(-0.6915768838644668 -0.08814505600156038 -0.7276492553324792)
(-0.7274082937894906 -0.07899622417892438 -0.7602380847842241)
(-0.6705233960390186 -0.09020770945747704 -0.7974427440433581)
(-0.6920883089551082 -0.08420065147073987 -0.7287765764255117)
(-0.6719374814885242 -0.08438364306702408 -0.7995398360056427)
(-0.6610238172459322 -0.09216066139112745 -0.7421415277817061)
(-0.6633028252534393 -0.08066829504401697 -0.7463382665300875)
(-0.6745167236587098 -0.07366634527594101 -0.8034510701884269)
(-0.6942858915636144 -0.0736936958652776 -0.7327433886639533)
(-0.7286084909290268 -0.07976572763618819 -0.762948140383612)
(-0.6938209785148761 -0.07697610228368879 -0.7317730384416857)
(-0.664261666104998 -0.07406901741159114 -0.7481776352207805)
(-0.6732698242509576 -0.07887821902135009 -0.8016269283312281)
(-0.6511255042808466 -0.1445073734139834 -0.7213950512333275)
(-0.6803701273979348 -0.1504755400466283 -0.7034184018817741)
(-0.7140758384807537 -0.1363479444612609 -0.736835693740279)
(-0.6557283057876787 -0.1538099984148548 -0.7733518022980834)
(-0.6579776797128031 -0.1436376750104584 -0.7770421900277227)
(-0.6809868072844009 -0.1419153275372309 -0.7055472434759)
(-0.6494022489627755 -0.1565138279544791 -0.7175946806617197)
(-0.6526664143222064 -0.1367571266312952 -0.7251899219148553)
(-0.6620718096060773 -0.125568617723145 -0.783918672683394)
(-0.7158017412841464 -0.1334557912523016 -0.7417925185045871)
(-0.6840790772839593 -0.1243905270183856 -0.7127306845738663)
(-0.660058503519437 -0.1342488887834259 -0.7807312035212894)
(-0.6834631202236846 -0.1313840228876156 -0.7109347403111588)
(-0.6542106360469787 -0.1263687046868206 -0.7284517880280946)
(-0.658492132722161 -0.1050965379876102 -0.7372958753503963)
(-0.6896519475612515 -0.09595102027346113 -0.7241910873600167)
(-0.7228716592358803 -0.1031473776150236 -0.7538922763837695)
(-0.6690224330261878 -0.09639214501477535 -0.7950415648136622)
(-0.6890970534489704 -0.1007051197375741 -0.7228802222670322)
(-0.6597185031076315 -0.0970019555198168 -0.7397379560181996)
(-0.6674259932917372 -0.1029687835519406 -0.7926337113618325)
(-0.6570828886596124 -0.1107011014181017 -0.7345100242418394)
(-0.6639479735559481 -0.117501024810939 -0.7871042566007821)
(-0.7214002598522452 -0.1038175991246507 -0.7502548440494133)
(-0.6863863685100438 -0.11497877853278 -0.7173567748963684)
(-0.6869781467917155 -0.1092270539630754 -0.7188863734902117)
(-0.6657437186668789 -0.1099913350117386 -0.7898709249194519)
(-0.6557043529015264 -0.1198148274744826 -0.7316928392934859)
(-0.03648510256548949 -0.001736153121430867 -0.2423336957019235)
(-0.01327792949350447 -0.002354848972086705 -0.06120100381096826)
(-0.01141784835072559 -0.001228391186132679 -0.01331208724777482)
(-0.01327663204662917 -0.001475155537733588 -0.06121228520403265)
(-0.01141988981836994 -0.002612234370332508 -0.01331025925505699)
(-0.01136852409596227 0.0003140702820847975 -0.01314333285815737)
(-0.01308379149542709 -0.0002354206503054676 -0.06011010742484627)
(-0.05688850201746774 -0.001554578265169345 -0.1872667803566185)
(-0.05024626140251311 -0.001755269607847257 -0.3356321780175946)
(-0.229779964842572 -0.001734913252273211 -0.4904334068483886)
(-0.4164016771542521 -0.001661647445557295 -0.576534610246914)
(-0.1575043221063032 -0.001768871105309657 -0.4622464116381977)
(-0.1195861440715145 -0.001782537803995362 -0.4097938668375086)
(-0.1925447186791084 -0.00174510951637963 -0.5752339572643979)
(-0.2512878658283972 -0.001721603312071834 -0.5996319011705111)
(-0.6671233391614266 -0.003018497161338768 -0.6679749072237475)
(-0.533666655785596 0.0001656844512570859 -0.6574893767567933)
(-0.4625259366508419 -0.0016232841631286 -0.6464484989842194)
(-0.3331096700738013 -0.001682855756902565 -0.613106254894497)
(-0.3981243598753 -0.00165763494817686 -0.6353008785826932)
(-0.01829617535713526 -0.001487860952396673 -0.1050123684368025)
(-0.03864244728499541 -0.008243955464759438 -0.140580311304355)
(-0.03856703620239969 0.004525656687228385 -0.1405657974049515)
(-0.0182975854454899 -0.002313073623812334 -0.1050435527078828)
(-0.0275405317023771 -0.00810785677697937 -0.1375842354129835)
(-0.0172680856360393 -0.002147049849506273 -0.1009940331938384)
(-0.468050326448438 -0.0009268469399979388 -0.5798825222616247)
(-0.4679692269582332 -0.005641240334225263 -0.5798977628245805)
(-0.4163208064510338 -0.005016263638768609 -0.5765582172585804)
(-0.5659985285582021 -0.002660038714709925 -0.6701279758745203)
(-0.5811145450001745 0.000292676267746139 -0.7014697262165146)
(-0.5212070241457414 -0.001584025077454803 -0.7142244175151083)
(-0.5336159222043269 -0.006538610659795488 -0.6575017941596969)
(-0.581055775747442 -0.006501944418196021 -0.7014653549901951)
(-0.5659572477895137 -0.003681387838039046 -0.6701564222348588)
(-0.5211535299053487 -0.004765753660520943 -0.7142132925299058)
(-0.03649938312269363 -0.02587099398121491 -0.2414860200120469)
(-0.03650658163132348 -0.01618691661287271 -0.2417725552458513)
(-0.03677774135703169 -0.1936753395265896 -0.2286376989862659)
(-0.08350580297278891 -0.1914399045956469 -0.2403756754841663)
(-0.03641235699792311 -0.1458666678992319 -0.2326108576385099)
(-0.03635976967653998 -0.1117659935525399 -0.2357357993932452)
(-0.07708767312213384 -0.1462868580298841 -0.2453494649144737)
(-0.03639270435339211 -0.05916945009550587 -0.2394247684590941)
(-0.03648163495873116 -0.04683120893032983 -0.2405565766450127)
(-0.05201743363742889 -0.02778420991619013 -0.2580054702254261)
(-0.06308857392340798 -0.04734253603121362 -0.2558447969482553)
(-0.04664892089295775 -0.06392939194846012 -0.256045108629206)
(-0.03639089591232908 -0.07943344193861246 -0.238398049884376)
(-0.07234905638662599 -0.1127903657165793 -0.2494791169745683)
(-0.04305406352247213 -0.08539421444862785 -0.2552356262561603)
(-0.05680076499318157 -0.02270770958751251 -0.1867312423333085)
(-0.06160763517527594 -0.02574652442428239 -0.255318434801707)
(-0.05542106707051007 -0.01887291260205892 -0.2563686382313672)
(-0.05679467699434653 -0.01422710734704535 -0.1870421451053627)
(-0.0547762709832302 -0.1701145396584678 -0.1774578440025159)
(-0.02689098794951651 -0.2179747661318813 -0.2450445215350259)
(-0.09017464672385637 -0.2386060678138297 -0.2339360445739791)
(-0.05223815968665605 -0.1892012221886314 -0.2495255175962147)
(-0.03188914163646112 -0.1598909572574543 -0.2496621893906002)
(-0.05531039716538801 -0.1288962652215416 -0.1798974977712006)
(-0.05580969172507669 -0.0989267442281075 -0.1823023692521362)
(-0.03771211666014869 -0.1218051527047124 -0.2524334388730823)
(-0.05234700536843116 -0.1446121856766119 -0.253385573207598)
(-0.05639998378451311 -0.0520329037486281 -0.1851258516603513)
(-0.0661144950781085 -0.06001506615868246 -0.2526876912667138)
(-0.05062767725473557 -0.05214635553898053 -0.2554391970445166)