/*--------------------------------*- C++ -*----------------------------------*\
  =========                 |
  \\      /  F ield         | OpenFOAM: The Open Source CFD Toolbox
   \\    /   O peration     | Website:  https://openfoam.org
    \\  /    A nd           | Version:  7
     \\/     M anipulation  |
\*---------------------------------------------------------------------------*/
FoamFile
{
    version     2.0;
    format      ascii;
    class       volScalarField;
    location    "0";
    object      mag(grad(Phi));
}
// * * * * * * * * * * * * * * * * * * * * * * * * * * * * * * * * * * * * * //

dimensions      [0 1 -1 0 0 0 0];

internalField   nonuniform List<scalar> 
12692
(
1.077024160179318
1.076666563804119
1.067523261657402
1.070582573299324
1.074094601794853
1.071960803579861
1.074987592716128
1.076237804307829
1.029136962740835
1.065611879522597
1.061565843736915
1.053974214847374
1.05905602017007
1.033874110350313
1.040739484810632
1.0507862121833
1.044687160265871
0.7547372736478012
0.7551595994797463
0.7520385285531144
0.7513670192284757
0.7567804456141574
0.7568278215790852
0.7558672814320071
0.7555383428484729
0.73933994763462
0.7456583319288658
0.7447698110274458
0.7498925195456068
0.7506494156942874
0.7430214905354643
0.7438876199400803
0.739611703363617
0.7393441359247941
1.096244818277548
1.09757212381942
1.0999313989217
1.09880002568289
0.980956392811837
1.024735523139334
0.9379649542013504
1.024949143918318
0.9381538868630411
0.9807525854307056
0.9810778867760351
1.025143638209243
0.9383286567817829
1.025084260785814
0.9382744957587289
0.9811309000663871
1.056777924309898
1.094816680667522
1.093284425912789
1.089900116531598
1.091646803285695
1.059955762814132
1.06306374335242
1.0689848052585
1.066074369122878
0.7542761582918058
0.7537799644537637
0.8968976520561314
0.8975876654520446
0.7962303736905521
0.8422151524888306
0.8417006184082513
0.7966933370738496
0.7957200362934596
0.8405013190640757
0.7951649555026996
0.8411275688101061
0.8987783834302131
0.8982147434165959
0.974627913484778
1.019259370874015
0.9331774064602238
1.018246132008684
0.9322984426595559
0.9756025838309722
0.973619638723755
1.015963107927227
0.9303240904119375
1.017148506718285
0.9313485950232837
0.9724807411477493
1.103526203862207
1.102763528731116
1.100967689299372
1.101911304054458
0.7526649184636331
0.7532440057541012
0.896142963465026
0.8953232608761029
0.7932029213805272
0.8374077296027204
0.8382688625339608
0.7924459113035319
0.7939088313097814
0.8398151554716311
0.794561605033774
0.8390737566906138
0.8934827392743094
0.8944363752206113
0.9772729991394313
1.020188019676481
0.9339840879346556
0.934722018572075
0.9764570195221971
1.021035196428014
0.9779785252802117
0.9359906063867774
1.022486842865158
0.9353900676178968
1.021800642147668
0.9786403729317158
1.106496232827218
1.106424725097222
1.106028258791161
1.106269167791966
0.7566881876667265
0.7565536948501752
0.900641035950293
0.9008233942027967
0.79845283624602
0.8441955094989864
0.8441577021204534
0.7984931277695404
0.7983615720041631
0.8439070499863734
0.844062545842599
0.7982186705557037
0.9010032812771037
0.9009439647766226
0.7561461329967214
0.7563741003586606
0.9003959990265402
0.9000876682137517
0.7974666355485849
0.8426742255060817
0.7971068706725425
0.8430724881506247
0.8992788813150011
0.8997152264085887
0.7977722726895458
0.8436898076846062
0.798022559932865
0.8434121192481275
1.104200327360266
1.104787094653479
1.105700780132073
1.105287133630051
0.980125308553494
1.024442964710242
0.93770734762633
0.9804834622686411
0.9373806997358785
1.024071345596286
0.9797101715421087
0.9365221029053344
1.02309329431574
0.9792001793430842
0.9369859004529502
1.023621708898284
0.9822951446731862
0.9033438734249514
0.9417498209594884
0.8170405827836601
0.7766910503175475
0.8694743025492803
0.7465477579575683
0.747423781411955
0.8877119675643322
0.8863661298179139
0.785882268415292
0.8284999416047409
0.8297781080131159
0.7848182434093163
0.7869295533229251
0.8322187130731186
0.7879479727310325
0.8310247843967702
0.8835012234515273
0.8849604552150797
0.9686767128675944
1.010326495892271
0.9254902150016245
1.0118732809429
0.9268105144153628
0.9671964998845649
0.9700059115901495
1.014690343153694
0.9292274468070489
1.013326844562062
0.9713137864693814
0.9280549916939103
1.081784742207996
1.08398805320484
1.088043493896763
1.086072854149652
0.7491000442358835
0.748277491991294
0.8889970352801028
0.8902171184015935
0.7907797803535233
0.8364821782293653
0.7916363894311498
0.8355027576227264
0.8924609094123568
0.8913726255785106
0.7898769148592084
0.833369660754456
0.7889332528226515
0.8344609728673619
0.9640490730643352
1.00868742602616
0.924099228458334
0.9226339341505033
0.9657030908205824
1.006953492975634
0.9623921222030904
0.9194989538736301
1.00320362711722
0.9211015729493842
1.005126037137591
0.9605661452617803
0.7421824458188856
0.7413955038780519
0.8772311874438743
0.8788456471461724
0.7826613752690865
0.8271787704901871
0.7837405513628612
0.825840536724855
0.8819904268966069
0.8804369224243755
0.7815883174112613
0.8231164109866086
0.7805441046024139
0.8244743678030012
1.079464117308936
1.077021898629646
1.071780076383395
1.074461721657716
0.9483267146076263
0.9922440377814663
0.910662409606699
0.9898181318602183
0.9087913405984186
0.9505770224090972
0.9461744418374258
0.984821957872166
0.905098679466287
0.987336375247567
0.9438796595929329
0.9069315941082786
0.7400768208570661
0.7406837241482027
0.875604165590706
0.873987808927552
0.7778041094537891
0.8180509407386815
0.7771434235044943
0.819191504400716
0.8708855147013701
0.8724022565354227
0.7786220349743
0.821758937405291
0.7795449442873209
0.8204511329075368
0.954797700682066
0.9946031487781205
0.9125122697617327
0.9143351495910327
0.996884000917569
0.9526593217479233
0.9567597292960801
0.9178358147068492
1.001188241302866
0.9587505420845487
0.9161098576570792
0.9990805857092174
1.01937083041086
1.069188990075356
1.019344079516174
1.028613259854741
1.076995502014217
1.028607034662769
1.069126679677097
1.019204880048058
1.068757817605233
1.076800760732948
1.028343659427577
1.028432641945572
1.068979176647116
1.019036472855511
1.011543370224496
1.02001028469469
1.068287019929686
1.059452466337859
1.060683627373558
1.020579648030455
1.010512619452334
1.01273695801356
1.062931896942259
1.069924659200685
1.022699333148189
1.06188101342188
1.022206079353869
1.0136192917784
1.01619985066068
1.025950971826507
1.07364491178381
1.066363009668931
1.025612217635098
1.06565310619378
1.016797798693838
1.015367569667831
1.063943279306815
1.024070300687958
1.072513999882983
1.024486591058079
1.014629220113059
1.064820790857905
1.01791593597951
1.026838593435412
1.075334361381759
1.067021567377141
1.027098571338135
1.017456927141812
1.067567840080693
1.018404029255336
1.068440068932806
1.027928987915029
1.07599523218658
1.018721415829429
1.027751381221587
1.068055815422912
0.9756063649620652
0.9857458340535515
1.022550664444687
1.028129648701754
1.019747322561679
0.9776321960880001
0.9853434874028062
1.007945527002108
1.0181163732439
1.064741990547097
1.058061285387998
1.056642567896882
1.017472873825461
1.009128865156275
1.006365423598483
1.053436155151775
1.062540530371018
1.014584507212923
1.055049584948862
1.015298194574914
1.005026253720202
0.9997611223050767
1.007730904547
1.055142253378496
1.045779128453358
1.008559009402488
1.047799850928761
0.9981082715480312
1.00174788240437
1.051633568838749
1.012114881653906
1.057980514600347
1.011338049487067
1.003244513686203
1.04981891862771
0.9824752532455616
0.990123147145705
1.035095118639114
1.025529198385522
1.028280590970059
0.9907976103432236
0.9803886907818095
0.9851783508154897
1.033748056449763
1.039441543115135
0.9957018710049294
1.031135880647989
0.9948928601398862
0.9872196378327092
0.9941138661957535
1.004628855885709
1.049541033798294
1.043538955331417
1.003768940522791
0.9959167265847212
1.041310821654544
0.9917245747364482
1.03642004668944
1.04598219861645
0.9994734157940444
1.000333515122202
1.038849782574545
0.989786947969164
0.2450710040160357
0.0626690640809799
0.01758089510686826
0.06265292413177473
0.01773134662979906
0.01738071284162081
0.06151801392604413
0.195723185648783
0.3393769683952643
0.5415964999148015
0.7111858228491822
0.4883466857259742
0.426889958411478
0.6066058190361351
0.6501591899926635
0.9440620412131711
0.8468130888789779
0.7948764299972438
0.6977565220697913
0.7497419289380052
0.106604696367559
0.1460274818666265
0.1458308652171334
0.1066503629071084
0.1405476433887844
0.1024821513501155
0.7452084988499817
0.7451902014260173
0.7111733647102689
0.8771732520920228
0.9109083251724234
0.8841808580426864
0.8468159866125314
0.9108906268384802
0.8771720408246728
0.8841517637640988
0.2455952181113711
0.2450483936734636
0.3018906040237073
0.3184382539303183
0.27696706597986
0.2634103970637639
0.2958694207136975
0.2492983604166878
0.2477731591321106
0.2646594007193669
0.2677275555542427
0.2679966168225247
0.2539047049429969
0.2831887751393498
0.2725638441860359
0.1964956076910175
0.2639050726708632
0.2629687437204744
0.1959918619840428
0.2518544874804932
0.3290637346130369
0.3461074911935148
0.3174726944743111
0.2981832395999535
0.2281153149768644
0.2147914715461573
0.2828097240720289
0.2964070544486964
0.2003995064773806
0.2680000073566535
0.2655778369648996
0.1989307228669698
0.2705608578867064
0.2714860781142913
0.2754334689657998
0.2736323906962773
0.2050192195443347
0.2853875685280752
0.2820037660991995
0.3395974769489508
0.339107779128745
0.3453521137074801
0.3431438709658853
0.3413083592040441
0.3399309174638908
0.3522265968397754
0.3481100242303872
0.3436080177853452
0.3415084246186531
0.3421772860209553
0.3500187462174383
0.3492035021766138
0.3425155359428342
0.3440895544790351
0.3509077702809221
0.3449690899063282
0.541107496740203
0.5474712231309068
0.5386307953584101
0.5449137174219767
0.5408398528684563
0.5395490185099433
0.5382825797828035
0.5392814516019345
0.6090112154337352
0.6087619230133458
0.6067194780675479
0.6089744354194428
0.6039903166158888
0.6072137581425003
0.6040802648616188
0.6063566725684849
0.3748682960493971
0.5397798593393738
0.3489639959621367
0.3567418550797344
0.5407812634843625
0.371334933822296
0.3581151584752552
0.5401482698895324
0.5401010650839329
0.5385987675564027
0.3492216145112925
0.538736279567778
0.4881218089781414
0.5412235852990984
0.4878874762105604
0.5505801847863113
0.5021385554880153
0.5064206839049771
0.5389486601442095
0.4887193843744758
0.4894780720768877
0.5431827591296947
0.4980944630521639
0.4958747910616667
0.5404908469081928
0.4876306545549184
0.4868408139314219
0.5397059940708028
0.4874197731411075
0.4870850035656258
0.5381906046110531
0.4873590073820466
0.4867741605561099
0.5389377806631922
0.4871293364830924
0.4864450197187128
0.6093756814287056
0.7102242992553186
0.7107114972724488
0.6081997237902543
0.709902498109061
0.7091860243655959
0.6073794657243502
0.740674492828733
0.7417767695372942
0.6141510110815434
0.7315029392927416
0.7333620298887072
0.6039882924447771
0.7014842960935671
0.7005147995514518
0.6051662132259477
0.7323726654949047
0.7323221632239494
0.6045874399715042
0.7020980831252764
0.7033058047475373
0.605614752169729
0.739698823420199
0.7383537680263027
0.426920640537956
0.424622392954864
0.5413508526448555
0.4882604826953736
0.4880116359241922
0.4267816246175003
0.425003400737288
0.554370489728177
0.5107756921750923
0.3910799838951043
0.4495156795869298
0.4555741460393499
0.3932048222595704
0.4582787109802556
0.5392265039900587
0.4905362069579525
0.4895790315134033
0.3594674862326885
0.4310255166560786
0.4320593547925252
0.3634560485847357
0.4312171676238755
0.4298477178463928
0.5419232066313824
0.4927320165831843
0.4946201084781289
0.3776223862595114
0.441441159226505
0.4391831981382231
0.3715969875547042
0.4371464441800061
0.440105846171494
0.5402482271216169
0.4869280383112906
0.4865911177049438
0.4249953339671184
0.4221570786509413
0.4235950451019945
0.4217399697532577
0.5399259327448737
0.4874828026414722
0.4873086189169782
0.427191722888572
0.4244770880708078
0.4266444500077199
0.4253609273387448
0.538327346882826
0.4874388209392618
0.4868428672391542
0.355886398502418
0.4262507104920587
0.4246414874908909
0.3570837765309964
0.4277753715610583
0.4250240564694511
0.5387675991334048
0.4873826100922108
0.4866375373326615
0.4259632047462232
0.4230398897473041
0.4280685897749397
0.4242911080972547
0.2644543884913815
0.06159668254540669
0.01824030296511722
0.0605984198307755
0.01787105559391528
0.06035798406331477
0.2640053201100317
0.2677327249226157
0.3436267621455075
0.3429888474469363
0.3472973472866485
0.5414510066790991
0.54141870056841
0.6612451195407307
0.6095851548579405
0.7450536979572097
0.5415145166802016
0.4879323559131616
0.5413992216395742
0.4878000813505938
0.4874415031479375
0.4245737833193472
0.4242020604761737
0.4221983554170273
0.605847068247789
0.6055598376778489
0.6035418202508344
0.6057219157098839
0.6007149825189518
0.6039641129724209
0.6007852512371991
0.6031504279845368
0.6064129587793563
0.6063518170739297
0.6047052968397824
0.6044815064877455
0.6008799721589231
0.6013202238500109
0.6016979892602859
0.6020554127824698
0.6065498615399629
0.6060522707090609
0.6052312123518109
0.6038752886215354
0.6080091632338697
0.6006771731366272
0.6027632669108633
0.6009822105411508
0.6027315433122075
0.6064640355100083
0.6062228869132223
0.6049394244351179
0.6041976392281513
0.6109799902471945
0.6006919028307288
0.6019333121035516
0.6013047957384035
0.6023721899994512
0.6501266606436138
0.6500599456711821
0.648964848332408
0.9372195698372144
0.6463852872738736
0.9417439901538409
0.6492716361273189
0.9427295859295629
0.9121769760018372
0.6439929695208616
0.6424287514317205
0.9351849910694099
0.6458966230190351
0.9275444282439831
0.6420815733981935
0.9150001780601458
0.642821852927437
0.9245427522451011
0.9438942614151529
0.8769825613640808
0.6479594343555993
0.7932010857346447
0.7917078905827714
0.871176730256683
0.9389900104411529
0.8723720337941344
0.6476251139986473
0.7890748607458649
0.7911445712008169
0.8751786603330899
0.9404975053298664
0.8740766175114573
0.6499841371695644
0.7946477435876222
0.6498803442979207
0.7935828725621619
0.794470462722817
0.9434499401722974
0.8758432435575785
0.8765361990813173
0.84988216761699
0.9101065254192137
0.8485197916904416
0.774495020225154
0.6438734150498371
0.7817937824850436
0.784808537002071
0.8693772523635427
0.9328881124746631
0.8673494864161723
0.6443892058573241
0.7883283450667965
0.785707490242158
0.8626634309625698
0.9303360233990717
0.8645974910680737
0.6414032505343535
0.7808253342252116
0.7777867087072051
0.8521883203728525
0.9181521096088614
0.854458282933096
0.6414555970752942
0.7747622803666565
0.7769318955164765
0.8600610407869891
0.9213825588855248
0.8569975418498884
0.648622732544841
0.6963520535155849
0.6959736353622951
0.6468320735733897
0.6931136391313898
0.6936828014250951
0.6977306339121561
0.6495204503752244
0.6966933465846983
0.6969840188112809
0.6456254042718611
0.6853308407545281
0.6862212893832034
0.6428512257861129
0.6877154198707301
0.6883957251220169
0.6453827894511007
0.6925013577687954
0.6918596926820254
0.6417714854973415
0.6870636848379602
0.686444293709118
0.6420905343046762
0.6848373218985266
0.6846670598055579
0.6482842300212378
0.6951509093765899
0.6955708237669022
0.7481856887243942
0.7927400402698331
0.7477761460641839
0.746839756554072
0.7922659306741565
0.7473251533953567
0.6472477988811581
0.6947017236802793
0.6942139515838411
0.7444751862483991
0.789832210995676
0.7451296623891117
0.7463119492078149
0.7904878759122373
0.7457446371070188
0.6975627982568811
0.6976640041887494
0.7948518589776171
0.7497169447281322
0.7495280103459162
0.7947817496274742
0.7496462536087581
0.6497239247417097
0.6974195222726979
0.6972268847142495
0.7485535803132891
0.7939403018000571
0.7488715236551575
0.7493598032759928
0.7942224912301878
0.749141532976928
0.647882292019604
0.6876253523600474
0.7329596337902669
0.7743771990633584
0.7333404520649704
0.7747896086392798
0.7341514229133007
0.6433417284725566
0.6898183276749785
0.6891041132355887
0.7380707162028863
0.782849212499704
0.7389281878759723
0.7406384402018898
0.7837982969655777
0.7397920988437853
0.6448832697785593
0.6905208700616754
0.691197897354627
0.7437740960111188
0.7874749356254103
0.7430394688522917
0.7414694495847115
0.7866462898527836
0.7422668406703067
0.6415274091219458
0.6853772938415462
0.6858695761547379
0.7372137898517757
0.7797583925538359
0.7363811937629603
0.734823410680029
0.7788115892134164
0.7355714849483177
0.6416628097721687
0.6849930678242847
0.6847423616748143
0.7329294468532672
0.7753847155865592
0.733150468737677
0.7341437599383033
0.7760370394078449
0.7335796920393185
0.6092103599758648
0.6604087431836967
0.660639515831422
0.6601289048886496
0.6084767020137696
0.659827483256734
0.6070594577517608
0.6575705707384343
0.6580017369674452
0.6111514606496229
0.6555518972207216
0.6571546969952898
0.6039303493880365
0.6534531902626678
0.6531626048990027
0.6543630156505159
0.6060550401324996
0.6536145191974241
0.6538109612684017
0.6043022153789671
0.6542172018416299
0.6570989818067581
0.6059659336189781
0.6566251246056841
0.6608402028529053
0.6095033787470081
0.6609939553718706
0.7104752440618852
0.7442306072371275
0.7443782607138304
0.7447329062446106
0.7448387627570723
0.7108826943229001
0.6594971987765291
0.6079365705578755
0.6591646977331829
0.743744664759431
0.7095797288611884
0.7435602002702476
0.7427394896920814
0.7429515885469045
0.7088067460674278
0.6584223965911186
0.6076777834664177
0.658801627066
0.7409249792097758
0.7068912979061172
0.7073864222525967
0.7420114557960674
0.7079125231451869
0.7083495614286962
0.6594470688709173
0.7336264109381954
0.7009626923450212
0.7021279204512593
0.7037067360209676
0.6529472718707862
0.6041549391619572
0.6528486862462136
0.7010247823459949
0.7340017557766157
0.7340648506545515
0.7329876360277489
0.7326851707121275
0.7002111877813825
0.6531373963565013
0.6045927051828653
0.652909656208882
0.7003364525528187
0.7311298221674162
0.6999140344527379
0.7316491875566175
0.699874465626553
0.6999050816506958
0.6546817038704422
0.604945123759613
0.6551598265091391
0.7353559400409492
0.7026410401168611
0.7354457435934731
0.7369209077975173
0.7367375041298313
0.7038844654493344
0.6561334021184509
0.6052766028327661
0.6556561773831121
0.7063011755760236
0.7394466148314701
0.7057579281323105
0.7381218584732433
0.7051209534436226
0.7045505846177066
0.1023957482789768
0.134606929982047
0.1402527446456379
0.09915468054468592
0.1358176113129747
0.09857672065831696
0.133871457241012
0.09824044349119371
0.134221890117686
0.6097012595913058
0.6097249534130437
0.6612582598553456
0.6611132263485463
0.6611906558402706
0.609642855706909
0.7110280565299988
0.7451162146306014
0.7111166783530419
0.8466208492422793
0.8770509358820247
0.8467061407824665
0.9107539672430224
0.8839048100067987
0.8840562168221326
0.9106593947478261
0.8707571486752259
0.8405795726647103
0.8411470393222712
0.9042213609453648
0.8770325745167495
0.8779124466169876
0.9037113091478204
0.8421352291386951
0.872743131961089
0.8426307736461984
0.9055189913842197
0.8795640501546398
0.8788061079255325
0.9059669926735768
0.874915346264925
0.8449421072201895
0.8445940188413954
0.9083503200372178
0.882115890048748
0.8815946479361317
0.9086661269553649
0.8737579321091852
0.8434726512609916
0.8438950608207045
0.9074467452619874
0.8803247437765322
0.8809633578062459
0.9070637846627516
0.8760474822002438
0.8454984548556195
0.8457670333854348
0.9096268349846738
0.8826182957921067
0.9093810169813467
0.8830203997402094
0.8766761108120383
0.8461780155854024
0.8463594780925873
0.9101534471046048
0.8836703980121181
0.9103259760087536
0.883391173130905
0.8505142000310105
0.8218181636476954
0.8220508413977012
0.878808603924642
0.854178637066779
0.8531919770431866
0.8783608785567324
0.821031695553463
0.8757823834704015
0.8521957978759312
0.8394433746926637
0.8689159925663934
0.838809362433682
0.9016387142155956
0.8760038268006343
0.902204735529783
0.8750024349923032
0.8375271641897314
0.8668572867664767
0.83683664621026
0.8999159801804725
0.8727207765654471
0.8738398992403117
0.8993042050526603
0.8621653314531237
0.8323778832008757
0.8331281544752678
0.8945448341290984
0.8674602199715832
0.8687863966165058
0.89389650613677
0.8651046447553686
0.8354135325623878
0.8346813478891665
0.8967170361772067
0.8714286297610104
0.8701990978060943
0.8973589665738168
0.8233127039773164
0.8520609841894939
0.8235595070399386
0.8815166915240331
0.8555832684948347
0.8814478651828082
0.8568734228576022
0.8252697138260979
0.854636092559414
0.8257915415673345
0.8845150331956568
0.8598750496396578
0.8584575073418288
0.884884653603085
0.8596072074007459
0.8307135336499106
0.8299784048184955
0.8908765404945413
0.8659427983591388
0.8914960492557822
0.8645413825025778
0.8275642888305348
0.8573540664077113
0.8282331749826058
0.8882523292024115
0.8615045260764316
0.8629450013966651
0.8877155733612075
0.7396768081871932
0.9375947826196087
0.9773745002523747
0.9002521185596032
0.9395341877826927
0.9797997862560461
0.9017003483433628
0.74045854433804
0.8672221338268319
0.7765248561664242
0.81626321958044
0.7767311875993265
0.8157543803341892
0.8682309614878028
1.079119386103895
1.139033487667712
1.142960011790086
1.096662747140283
1.13756719780211
1.132313350670392
1.100050817748074
1.110011043657827
0.9941018990922641
0.9884093362873998
0.9930876181616154
0.9863002794591647
0.9783466273968819
1.146741435678858
1.144021914542587
1.149864675895554
1.149362996705723
1.147431619289607
1.149026274893897
1.12367509313841
1.130400690180347
1.121270624661934
1.112935578950328
1.116566211641323
1.160025897385386
1.163907210651656
1.158412841560548
1.153215118698384
1.19500211034002
1.172164408312399
1.140474282152783
1.173626344288182
1.141733607369242
1.176217989332771
1.174974520665316
1.127301354930707
1.170592611505349
1.13590097244049
1.168900369938819
1.134217157282097
1.165156575528665
1.167092423880696
1.131081847134309
1.103576799949354
1.134738548511513
1.141600458906729
1.106750752663421
1.138239188715158
1.170923263488764
1.170457069596563
1.168519798531922
1.170087694620022
1.167760775499792
1.16507512055143
1.144445508770615
1.151109565202369
1.120330846087836
1.130279297920301
1.141794403104382
1.133512307959097
1.180156566622827
1.14591635116918
1.179321105882974
1.177353560413628
1.145043629461218
1.178388800647363
1.183403021182634
1.149786168614287
1.183324580479465
1.149624530526075
1.182891036967011
1.183154728386766
1.180893061381556
1.148066193352647
1.181535151931724
1.18253355076644
1.148578575895048
1.18208105138507
1.156113819151433
1.126093202193811
1.158581469696137
1.163098573378423
1.128246323027594
1.160904528316023
1.153510407921864
1.118576816359804
1.150754197398561
1.14480027311757
1.115912990736787
1.147856804056721
1.244897202935608
1.246483027059062
1.243188281097406
1.241348840352448
1.257064318159292
1.256979399830105
1.25435152310854
1.255044901426588
1.253554947242834
1.252652258056605
1.227359706224242
1.230070710221015
1.199342164314977
1.203501993618267
1.224488115529976
1.221441933215181
1.249292805021563
1.247946161732842
1.237268781163734
1.239378609050686
1.256510614495069
1.256795648005981
1.25612391374572
1.255635187249684
1.250523420411146
1.251643088103053
1.235019327879294
1.23261983893258
1.211238833672893
1.20746170179341
1.214821068519001
1.218224612415268
0.9954816748904319
0.9952992641841406
1.078876459033629
0.9948411702519994
1.07739547240581
1.078303255303668
1.070407437375599
0.9902424502215785
1.072671076553654
0.9918012541194814
1.076156498902692
1.07458405349756
1.067781173909646
0.9839157398136522
1.06477965140832
0.9812604665631245
1.061390879411812
1.165075674796208
1.112985596049925
1.160981254233959
1.212580437411201
1.161374598017771
1.214066063154706
1.162759778296474
1.216773909802393
1.215511127998601
1.210893929721546
1.156852270952616
1.209172801298245
1.154999442404017
1.205259263232194
1.207230347314325
1.224291993394643
1.170864442801036
1.224208089248059
1.170690347006519
1.223753117995788
1.224023559380567
1.221674114722005
1.169110897559846
1.222325701524093
1.22336971519428
1.16967438364231
1.222909673217949
1.220886309361719
1.166990181721235
1.220038599873787
1.217990063002012
1.166030423197514
1.219040836097819
1.195780401111154
1.146716730964893
1.198301494887368
1.203044389041836
1.149088547239149
1.200807144726975
1.169261834869812
1.123680155164565
1.173054738038676
1.180364497539842
1.12719607815779
1.176896898778448
1.192964288503357
1.139260078801159
1.190141248518568
1.183854843891799
1.136319573226927
1.186995516336381
1.190465557601062
1.092920381609572
1.053542394905645
1.123385929199809
1.089400544731135
1.050299709891827
1.119386368335764
1.185768289367216
0.9729523566464578
1.023047363872936
1.016766270881874
0.9807815821971719
1.10905502322242
1.156492199093103
0.1700577733344162
0.2123909699809509
0.1707819249665957
0.1743242368583133
0.2151833489379877
0.2123245361258728
0.1702500244925675
0.168575811831943
0.2116282118078516
0.2109138560847807
0.2787919302346484
0.2533673228373855
0.2847547165074715
0.3023864245801397
0.2866991121874222
0.3034797660885744
0.3231750040475733
0.3157945128503583
0.2679816649512752
0.2538594194170554
0.2854044435373719
0.2917471127257213
0.2374157987415492
0.2498015909364364
0.2777648331838784
0.268535078107988
0.2341004085657021
0.2156612478610304
0.2503933530927414
0.2608222770112961
0.2084228301970312
0.1942978212250781
0.2324160476157217
0.2391507861025591
0.2343487413619864
0.2223969682950537
0.257151019635474
0.2625794868100716
0.210526295007923
0.2200864715036336
0.2514514141806539
0.2447947281078554
0.1781367302260154
0.1850129270139174
0.2227309908034631
0.218730514189226
0.17676952794525
0.1708357849761707
0.2138049896159212
0.21526992122897
0.1685485197751213
0.1711281586267611
0.2110425887241712
0.2114731370251496
0.1737839572760617
0.1716875230527828
0.212333911015804
0.2135072380983066
0.1811440455281531
0.1758421401993907
0.2168587817847456
0.2202267958237148
0.1733637360379505
0.1761429634820753
0.2155353763505876
0.214044127549922
0.17286756814142
0.1799574128591027
0.2169008209018337
0.2149662429037863
0.1862578538519584
0.1809590667761055
0.2197969675955306
0.2231167618657866
0.1868081037201969
0.1948965711218349
0.2304940636374239
0.2262644603754314
0.2129272409773662
0.202961993452199
0.2401704312324748
0.2449062532942005
0.1952502578890269
0.2021446287187599
0.2364667959269328
0.2320807019429065
0.1790823267934173
0.1887016842204046
0.22336619894595
0.219944371859709
0.1956222245297365
0.1896729162200649
0.2268426671445707
0.2303117758273295
0.2120685801007741
0.1696047077593354
0.169237050241059
0.2103834784701344
0.2138604770494187
0.1723325765518273
0.1699816680540442
0.2114346323986063
0.1696569425127413
0.1703128314160205
0.2109028880678468
0.2105199935734236
0.1004235563546265
0.1579714054110657
0.09992976572540503
0.1560827326007735
0.255634254098239
0.198947434671904
0.3192027017637941
0.6774747428958893
0.5169600950200625
0.4590697030444684
0.3950411070164495
0.08297044783967029
0.07874582045640124
0.05410182901963544
0.0831245008578409
0.100540579440304
0.07871330857168055
0.05417114118781372
0.08270528959706017
0.05387967198421436
0.07800173909479521
0.727384811898235
0.686704936494699
0.6867165118572598
0.7273770113418703
0.3941430318805269
0.2115761682179581
0.2967409204774199
0.2505356457914936
0.1888210970253939
0.1561193743249603
0.08306953825430803
0.1541733444113494
0.08455897037390854
0.1569423632739068
0.08276513237422374
0.06179074868861117
0.0227706255380122
0.06339227091240682
0.02141942300895653
0.06076871528343807
0.01899328670241713
0.02009577497086682
0.1994306796279855
0.256181845232875
0.1981823195030695
0.256565548292379
0.2001325391802521
0.2560038739305857
0.3218507381923906
0.3218229945498158
0.3242636609965702
0.7663000565855508
0.4449721757581833
0.8706599121719447
0.5791827428915101
0.5841753461235279
0.4791549649207208
0.4790968807228378
0.5840738492950739
0.677350688924782
0.4590704027003638
0.5169655774358984
0.4588698267359814
0.5169001797906021
0.5168600042544943
0.4590164667941631
0.3726897355795785
0.3726318529285291
0.394808297479724
0.394415967410955
0.3947034094845682
0.2804072168111986
0.3305094829335402
0.3629077690931693
0.3303090625848992
0.3938976960917493
0.3625935913786381
0.2800384407548487
0.5396547280542698
0.5816344016140582
0.434785338127493
0.5485257171169753
0.187868540443184
0.175712661587442
0.1412100846793802
0.1749126867758115
0.1880743425393516
0.2115659965843444
0.1411906588228566
0.6835631658841843
0.6729108852443926
0.2641538045085032
0.2638187810591363
0.2967054530033774
0.2501014861761189
0.220820492212843
0.2197315404487757
0.2500025611906122
0.297002695702669
0.2201867530066542
0.2641451491551225
0.2637706367020569
0.2967603530141651
0.2190852237128649
0.2497377531700084
0.2122051815316022
0.1755013062729955
0.1418997920451193
0.1743970726799023
0.1880591870071787
0.2114055695390982
0.1412959138178176
0.0781214540494123
0.09993448952062867
0.08285855118640695
0.05408779401051877
0.1000385588283361
0.07749223352243291
0.05410550805054543
0.1423962997275967
0.1039874252724593
0.1001702835045361
0.1014684108425059
0.07950813955081756
0.05596509304697689
0.0783907466252982
0.08345588241679229
0.1002962366577397
0.05526145122165027
0.07759173540458764
0.09950343818019194
0.05423824864509613
0.08344051088935583
0.07728563610523191
0.100064671501939
0.05463497191355277
0.7662692304681701
0.7096936102206164
0.7228598589154559
0.7857856277080263
0.7858644655675421
0.7229351680737963
0.7097157684949988
0.5098398598663432
0.3968838844591525
0.48367984623889
0.3967388867553249
0.4448213954604416
0.5097720932439439
0.4836621097072605
0.7570311821361296
0.7213051862701434
0.5976696969432231
0.683211462108064
0.7559531515580324
0.8059116938008181
0.784134937474661
0.7383271737643435
0.8159426132492976
0.8030359137833264
0.7510638542069649
0.8191298853140054