/*--------------------------------*- C++ -*----------------------------------*\
  =========                 |
  \\      /  F ield         | OpenFOAM: The Open Source CFD Toolbox
   \\    /   O peration     | Website:  https://openfoam.org
    \\  /    A nd           | Version:  7
     \\/     M anipulation  |
\*---------------------------------------------------------------------------*/
FoamFile
{
    version     2.0;
    format      ascii;
    class       volScalarField;
    location    "0";
    object      p;
}
// * * * * * * * * * * * * * * * * * * * * * * * * * * * * * * * * * * * * * //

dimensions      [0 2 -2 0 0 0 0];

internalField   nonuniform List<scalar> 
12692
(
0.07998346627799384
0.08002076909208597
0.08044320722200195
0.08036163353593752
0.08018982950707963
0.08031551999069327
0.08014582025669909
0.08004612195014814
0.07310218487736383
0.08045900367350987
0.08036252880659724
0.07977418461226721
0.08028952734784406
0.07447688874161197
0.07748057350188912
0.0795061101540616
0.07813414453123796
0.2426367744578852
0.2429887515799791
0.2402585454657814
0.2396396580095324
0.2442804156152311
0.2443152321679042
0.2435588750970427
0.2432966523222637
0.217678172598982
0.2336548092619769
0.2325226810977603
0.238233691748618
0.2389648813827132
0.23001431682109
0.2313141468917725
0.2218806659608312
0.2198527087054958
0.08359333300692347
0.08359397792552041
0.08355312424117108
0.08357155280679049
0.1403332451724654
0.1216904699450083
0.1651694802360372
0.1217015077518551
0.1652131713879812
0.1403087721429234
0.1403474212672784
0.1217091121917269
0.1652521737467776
0.1217072866491347
0.1652407680491392
0.1403527723596832
0.07584966185585597
0.08359330490837304
0.08356093122475923
0.08344335328942927
0.08352429120636946
0.07725383010643473
0.07849421188938342
0.08035055659137981
0.07948066210001754
0.2422451877042183
0.2418164676761352
0.1846392429137912
0.1848962667330303
0.2225627209187778
0.2002262740721316
0.1999904772949352
0.2228593928580023
0.2222284378569971
0.1994250829183108
0.2218630233592485
0.1997188640278582
0.1853293056932742
0.1851245435255558
0.1393835932574735
0.1212447213356033
0.1639514542994503
0.1211445279545879
0.1637008524462913
0.1395485363053094
0.1391999596534862
0.1208778856890434
0.1631204108640748
0.1210152913989815
0.1634324091293023
0.1389875340863228
0.0834227819575635
0.08345331100126124
0.08351900710461466
0.08349111223842397
0.2408273918783243
0.2413459034197076
0.1843563096784128
0.1840393198700152
0.2205198766970703
0.1978857973043436
0.1983230757572756
0.2199852859655843
0.2210126178854477
0.1990909972160964
0.2214566922991039
0.1987311008670068
0.1833032572923118
0.183691300621409
0.1398176805117783
0.121339737205657
0.16416605122364
0.1643660174566758
0.1396901711459377
0.1214125098110796
0.1399262423997173
0.164692998087066
0.1215341891066477
0.1645362254787981
0.1214819735606362
0.1400233129568141
0.08324108220002391
0.08324990542821181
0.08328029478306216
0.08326311489734714
0.2442077375292685
0.2441023466918462
0.1859718573236311
0.1860313850396451
0.2239554141001278
0.2011227237532674
0.2011011651395879
0.2239835870706383
0.2238955478037433
0.2009851961877273
0.2010552872996081
0.223806808060917
0.1860860203094045
0.1860690939681149
0.2437802277307246
0.2439612201854247
0.1858914167463153
0.1857870286921314
0.2233446320481632
0.2004382056587105
0.2231218877683586
0.2006153166187935
0.1855065556338685
0.1856599432004112
0.2235335429137148
0.2008886576673197
0.2236862143633431
0.2007675723202492
0.08338670631169419
0.08335795278706599
0.08330314107010234
0.08332716865852546
0.1402296126490776
0.1216728259868657
0.1651108620024088
0.1402753940984811
0.1650325966411985
0.1216510279131149
0.1401740621083256
0.1648234609704114
0.1215834154650236
0.140103958526131
0.1649397221925903
0.1216189516232995
0.1092073767889856
0.1474821346589261
0.1256540878797581
0.179325338071638
0.199460016910459
0.1659992950699272
0.2347140058869701
0.2356986733115274
0.1807164057191466
0.1800353398022623
0.2146814949880527
0.1924937628804201
0.1933784381143069
0.2136597120544609
0.2156360951001662
0.1949559915304684
0.2165115808498991
0.1942113855905446
0.1784739824853578
0.1792934012332669
0.1381745258083477
0.1200297289670166
0.1615163587396882
0.1202818980594519
0.1619902741096524
0.1378273755806803
0.1384785964081194
0.1207031586038637
0.1627869578518941
0.1205163169402407
0.1387506109828673
0.1624015401243505
0.08277027796976176
0.08302484553055095
0.08335102926386109
0.08319872592297568
0.2374489163509634
0.2366078180513881
0.1813322084670907
0.1818975529099947
0.2187608138857588
0.1973929855799303
0.2193960608488279
0.1968678741133069
0.1828791647910155
0.1824090291693406
0.2180677346852135
0.1956556245875541
0.2173245997947475
0.1962800268585299
0.1369940383835302
0.1197165838571661
0.1610095252543289
0.1604259363751828
0.1374374583682155
0.1193776109232425
0.1364934769809783
0.1590807219820526
0.1185060406270004
0.1598003281805885
0.1189603195088941
0.1359262517269489
0.2286128330185416
0.2271061820146383
0.1742956851067247
0.1755025005474485
0.2113535972573871
0.1915041943693889
0.2125486448015632
0.1904488633619648
0.1775797164075492
0.1765890376678116
0.2100469325512945
0.1879950220545218
0.2086387908308838
0.1892633518835237
0.08247979229901356
0.08208126978828439
0.08102963550215123
0.08162731463980868
0.1304820066516509
0.1148034394199357
0.1541231022061962
0.1137157287418363
0.1527229664594295
0.1316996463047165
0.1290740936578657
0.1109523614063213
0.1494229899880412
0.1124041497865716
0.1274922487575367
0.1511932481653709
0.2237567579282673
0.2254941439887226
0.1729674230758975
0.1714877694984663
0.2036122781644323
0.1814368018138213
0.2016311240069959
0.1833030555759037
0.1680249478378048
0.169851678415357
0.205437793548638
0.186567854373794
0.2071011503326224
0.1850349324221518
0.1337207225494548
0.1157886207763614
0.1553345264620679
0.156448622464203
0.1166024882372146
0.1327806111975442
0.1345535469782484
0.1583063236808918
0.1179505497453461
0.1352821006872895
0.1574141222715509
0.1173423053509698
0.1179440670730085
0.1003916132387472
0.1179404295218069
0.09870922147094466
0.07999025759225531
0.09870811945275695
0.1003951932906148
0.1179329678784338
0.1004037719488426
0.08000272794212511
0.09871120231906523
0.09870699744766406
0.1003990677792347
0.117924337948556
0.1173613403943969
0.09860972220709271
0.08042909719640272
0.1002213019113319
0.1002800146396102
0.09865090126667236
0.1172461064975493
0.1174793040071218
0.1003583918752203
0.08039274948629506
0.09871073717330128
0.1003266889594834
0.09869440574102249
0.1175599393046824
0.1177619143739752
0.09873519991062826
0.08022907753740056
0.1004129294620455
0.09874196852413963
0.1004087443306883
0.1177999557121756
0.1177009669445611
0.1003831662514025
0.09873247233998241
0.08027692538606825
0.09873372373078769
0.1176451194647987
0.1003976385482596
0.11786682168955
0.09873569969739364
0.08011048680387796
0.1004157861900248
0.09872578016384063
0.1178422059024891
0.1004140584429341
0.1178939802868577
0.100407648588624
0.09871369453149433
0.08007421671047703
0.1179087310663552
0.09872273448805309
0.1004121594241065
0.1039604129936845
0.08926882215780713
0.09070445836868196
0.07139893832705255
0.08885010027186575
0.1058949756493167
0.0874326879587326
0.116921743305827
0.09853343360362922
0.08044349293078097
0.1001417995229323
0.1000434100128926
0.09845457435147395
0.1170841165901365
0.1167013090746174
0.09976214466795459
0.08042448490262238
0.09819750316957541
0.09991692647884762
0.09833107920765165
0.1164753471359691
0.11546381755382
0.09719411303604011
0.0800053813521643
0.09870894123013782
0.09751385625230946
0.09905203026512459
0.1150368555401226
0.1158654830468722
0.09956970718399874
0.09800749647479079
0.08015836089454069
0.09779626328474569
0.1161771772863878
0.09933595973141235
0.1090661131903568
0.09082354709150069
0.07568262630512324
0.09225480429257943
0.09360555971459476
0.09215359444678398
0.1076254803154015
0.1103625480645441
0.0957104777989345
0.0766419780319821
0.09423982744021331
0.09473437732357527
0.09328630020476458
0.1114314325299355
0.1139151705436933
0.09678461446052274
0.07913338360765845
0.09829912239856491
0.09631488491012301
0.1144972415097249
0.09780565938239723
0.1131912558859712
0.09652530700582075
0.07870336703410057
0.09505709598658725
0.09573201110217519
0.09722380450449304
0.1124009480800173
0.3588892408017375
0.3716003623237456
0.37224042375924
0.3716301178760841
0.372210294801649
0.3721858485195088
0.3715741789750164
0.3644986952686695
0.3473397716556721
0.3025138419167665
0.2480558477141384
0.3186911339092418
0.3322043351963653
0.2926015047460105
0.2758784883996014
0.1381162294333197
0.1944082513816602
0.2157365866042395
0.2571063053646981
0.2359940003079669
0.3700816808446803
0.3679710530596677
0.3679543967236534
0.3701078982253291
0.3683302742127991
0.3702138142930225
0.2306261205911931
0.2305869899674201
0.2480135065151484
0.1758579316329349
0.1592547461850478
0.1782768795154146
0.194379736470232
0.159239495992748
0.1758318433913637
0.1782597661211512
0.3567317539132593
0.3582141992419426
0.3161670144982723
0.3162435884794622
0.3245978920639708
0.3332243309087264
0.325227918681027
0.3490396211089872
0.3524864136900184
0.3551366623781464
0.3524685074155777
0.3466798390128957
0.3428054373580263
0.3339185734710882
0.3400680135115332
0.3621230210899343
0.3566364149516475
0.3571095802405539
0.3636768519651651
0.3196271629626291
0.3122806221799867
0.3114810738474033
0.3170944794940542
0.3208185756777339
0.3277862451786542
0.3368441592394221
0.3298972076529829
0.3265745464181181
0.3538179497133976
0.34954228141376
0.3506421245894455
0.3575197619503795
0.3537950169108092
0.3528033236840313
0.344514740797519
0.3433834549787509
0.3471687307815034
0.3350317980531872
0.3373751557026815
0.3452925886149817
0.3467416759906626
0.3441414592857887
0.3423369473776784
0.3381790974641321
0.3415847671821657
0.3299688823207579
0.3362455648947032
0.3324802014319944
0.3459332374184292
0.3462662064724693
0.3429821795174848
0.3423753726677228
0.3395654831175985
0.3403363296045622
0.3348220759364308
0.3341446161183478
0.3009670167602713
0.2689893015149358
0.2843642752793756
0.2711890544677062
0.3005506678022113
0.2956146006737629
0.2859105912812875
0.2946882278571899
0.2822930304340531
0.2818950704251132
0.2775309257939417
0.2523406154684978
0.26726926011809
0.2545477610594619
0.2686986319108655
0.2766711228117862
0.3072066124005451
0.2791632282198578
0.3236838700444111
0.317807978461112
0.2772896338275181
0.3094396917524888
0.3153882811736905
0.298805690850559
0.2981066422325563
0.2901894695270218
0.3258115285515313
0.2913690465272439
0.3169281110976164
0.3013201817042158
0.317458927464796
0.266792170352609
0.282910076248509
0.2809280281158311
0.2827872783639272
0.2987156437816356
0.2971780807794695
0.2734067257370436
0.2853976583097145
0.2877153024768371
0.3000488495829186
0.3166771241704299
0.3163832642412786
0.2964782332357934
0.3109817904237734
0.3120963101395601
0.2874563420282669
0.300677216244284
0.3025581061231622
0.2936355616303523
0.3101530369130897
0.3092139996154004
0.2829179124946785
0.246987000406099
0.2474816991895623
0.2809164129273147
0.2466741960646742
0.2459219236088687
0.279061999847053
0.2264146893393642
0.2274882507235151
0.2475968270773537
0.2049357165770604
0.199737032076568
0.2641211020528699
0.2347070393816599
0.2319197525577447
0.2587104882615721
0.2071831778166695
0.211178184152507
0.2713762921745916
0.2359501028964658
0.2382018196891545
0.2747383523629026
0.2258117057524652
0.2244273026964993
0.3302744370138218
0.3311155087861504
0.3016587174002169
0.3180507904240699
0.3178375918888325
0.3315750198240525
0.3314867868815665
0.2644706478920011
0.2788386852956398
0.3040800189615904
0.2946420560029861
0.292576506320925
0.3037529122971456
0.2912897303073402
0.2810511152989714
0.2934716022300378
0.295609633451906
0.3205777300839861
0.3105435770939717
0.3086194347826436
0.3186116383697076
0.3055505338702734
0.3073158016974951
0.2754198926132061
0.2911974608296728
0.2894178709667174
0.3097710941960628
0.2975487513932007
0.2991838533760816
0.3117614059882692
0.3026710862287906
0.3004245892877995
0.2994648941540357
0.314810369720884
0.315762734505725
0.3299368578768947
0.329546605008232
0.3281951545613154
0.3290004161622128
0.2973328998535307
0.3137946259516658
0.3130376078305759
0.3237796067006696
0.3253011795110308
0.326931289929398
0.3261951486644891
0.2888834428482872
0.3051707422942148
0.304039458383617
0.3265303602747203
0.3130672090453389
0.314729893392397
0.327913234816034
0.3171604968380648
0.3159841547270409
0.2925086646544505
0.3062999272227975
0.3078075301398597
0.3227770015485933
0.3219184745692483
0.3186379067739404
0.3206401437918769
0.3576479086130468
0.3714923436738443
0.371971737101925
0.3714089116310615
0.3720997326686453
0.3713194059543913
0.3580088960859694
0.3575072781523114
0.3470005001731595
0.3467798874562787
0.3465599360331445
0.301949856349038
0.3021666706624743
0.2658497020201674
0.2833501942564015
0.2304132042285426
0.302456191657032
0.3188204594309013
0.30232991733215
0.3185056254005128
0.3188629678720011
0.3324404928164725
0.3321760186988711
0.332475389627827
0.2911507786009787
0.2907380142587033
0.2860974698857975
0.2604282065063528
0.2753914646932147
0.2625910977406065
0.2768582992203485
0.2852011590776465
0.292268218964014
0.2920736674866654
0.289088959471453
0.2884419392179133
0.2703857715836761
0.2685841311103186
0.2809322523143686
0.2820751901278125
0.2925390637632979
0.2914905580078244
0.290244869024066
0.2869184163137766
0.2582206649574099
0.273856153855524
0.2647376120717663
0.2783038476951906
0.2842007274379983
0.2924157312062411
0.2918046017506624
0.2896916861757369
0.287714812827772
0.2559020370170337
0.2721757312724431
0.2667343027221812
0.2796685134486719
0.2831490969760259
0.2758262623793609
0.2757240212691944
0.2742042776294684
0.1369333746892381
0.2700411882615623
0.1377448753266493
0.2745860716598205
0.1378926124268734
0.122403847098627
0.2454814010837605
0.2615476464682747
0.1364809143338779
0.2692178343065595
0.1341421450664091
0.2601646096443
0.1261415204449733
0.2476909723806229
0.1328569671751454
0.1380706449073433
0.1757306056980733
0.2727322856662807
0.2146912147042649
0.2137740325247183
0.1737436576502847
0.1372803749916515
0.1740579279172967
0.2721506124359815
0.2120283400915835
0.2133978116618568
0.1751713428381232
0.1375449652649773
0.1748000492909667
0.2755907779276709
0.2155638492461021
0.2754154623141156
0.2149306868931178
0.215451107930852
0.1379979020309635
0.1753260052413029
0.1755656541113072
0.1565931604691299
0.1175159157150458
0.1516699187866915
0.1920243217486483
0.2652994056271865
0.2060452443479695
0.2087611238528751
0.1730207883938001
0.1358933245995169
0.1721351516954195
0.2663719515219123
0.2114787998379501
0.2095316603140195
0.1697275472978174
0.1351311582344775
0.1704310866891727
0.2554143091328563
0.2049706488553237
0.2011755200762969
0.1586529255028184
0.1289981250438696
0.1621407740315312
0.2536603961457097
0.1942334010855164
0.1996528876980043
0.1681017692713509
0.1311829988964876
0.1649240677458145
0.2737596588728971
0.2556528722177245
0.2552672865430713
0.2707959639901441
0.2520062516285921
0.2526771519828683
0.2570660847689498
0.274905487190188
0.2559880407114363
0.2562730936427247
0.2431540091362881
0.2289938029603498
0.2266233377676951
0.2628743416390593
0.2443744579282461
0.2455811078838689
0.2683189271533623
0.2512771367957826
0.2504845870740622
0.258691208883242
0.2430988091351008
0.2417269961089822
0.249818113779307
0.231196768490016
0.2332789030269657
0.2732668349057165
0.2543718354652089
0.2548397720177508
0.2347576084943524
0.2144189969433883
0.2344300873035507
0.2336667144392451
0.2141125950943376
0.2340692286894945
0.2715032458834392
0.253860656975291
0.2532950856198192
0.2316270891253382
0.2125269956780543
0.232212276587945
0.2332294905487077
0.2129846199588878
0.2327411948615652
0.2568678992706284
0.2569839168986027
0.2157069611291385
0.2359613526842761
0.2357937293226365
0.215648452749916
0.2358929532703873
0.2751834102152484
0.2567137884919364
0.256514742611808
0.235041247428133
0.2151358532287582
0.2352869800390487
0.2356614846621508
0.2153092754808505
0.2354919715868973
0.2407102162929343
0.2241089571379998
0.2102230235641898
0.1896655443787126
0.207811818764456
0.1869865996053356
0.2052579845225727
0.2641288082444284
0.2477665700671048
0.2467110532850449
0.2248622733991011
0.2070207759142071
0.2259573874662067
0.2279047071183816
0.2079322058426381
0.2269602893973307
0.2673691828350777
0.2487375701607933
0.2496401453860913
0.2309976134782701
0.2108843097167522
0.2303047357999475
0.2287631985754931
0.2102327077201203
0.2295683354742837
0.2571033033514247
0.2386745630693962
0.2402553915798687
0.2237049967365391
0.2038194886006529
0.2224343385891326
0.2195981567216467
0.2025426545578495
0.2210836155185379
0.2518055565648245
0.2370031992028851
0.2352054435396892
0.2123931818979592
0.1961921140964249
0.2144418044614711
0.2180257310533142
0.1980222186883713
0.2162893462997025
0.282623717944876
0.2646854452229581
0.2649864792529015
0.2643272803830354
0.2814333247518747
0.2639219017917767
0.2783163422710312
0.260438836866148
0.2611479895578008
0.2500097584353771
0.2364178388317684
0.2339993720158296
0.2657541644237711
0.2510191943218954
0.2495866770641043
0.2386701797609695
0.2567047901776209
0.2408082189446507
0.2523679599720587
0.2700754367361919
0.2536325855502044
0.2596585985636111
0.2757327920934396
0.2588229126290416
0.2652477892349578
0.283164688650745
0.2654617199358011
0.2472532460428271
0.2296858329763017
0.2299219228132943
0.2301170248499518
0.2302827076822405
0.2476686381887528
0.2634634021000816
0.280354916440276
0.2629664128754259
0.2294197593564845
0.2463209408311681
0.2291080352409879
0.2283793245442059
0.2287679602845381
0.245484654651511
0.261813101006369
0.2797422314755677
0.2624142405125187
0.2269827457266557
0.243251990357493
0.2438843544136327
0.2279615715050932
0.2444688310631408
0.2449991159179861
0.2314585484590272
0.2024210635790682
0.2205857238200492
0.2180876081966118
0.2155061467795819
0.2480412538332648
0.2623830564767551
0.246397529816888
0.2333570333080629
0.2186604229628638
0.2173876232546854
0.2145399369552149
0.2160387558594035
0.2303501109459495
0.2427972288968827
0.2605943937794893
0.2446545923822276
0.2228133136322085
0.2092907052357291
0.2249497607968252
0.2129493932879658
0.2268711953784587
0.2286940103405445
0.254829351529861
0.2725878886426881
0.2559358101240244
0.2198071322955139
0.2371186606691832
0.2208936181158522
0.2228021255908088
0.2218736798662312
0.2392115568162204
0.2579203523590975
0.2737019771751978
0.2569693743927164
0.2425609126520066
0.2251381707049095
0.241814983047637
0.2236369341858058
0.2410097262716417
0.2401447583082785
0.3701432963709596
0.3685524684389231
0.3682838315571326
0.3702269474881282
0.3681731637648796
0.3700931437075981
0.3685903312806406
0.3702115798487898
0.3684638487623008
0.2835994123833029
0.2836551211546782
0.2658970291192631
0.2656308630500455
0.2657582222333662
0.2834904771287057
0.2478190540980107
0.23051516582263
0.2479327161155329
0.1942591882011964
0.1757884420391132
0.1943287431158349
0.1592110665034219
0.1781704965104375
0.178224101756409
0.1591686412237508
0.173407098609875
0.1913632509116489
0.1917660510878534
0.1576152789576125
0.1757561126430511
0.1761058803031784
0.1573282446619037
0.1921592713463338
0.1743296265109137
0.1924890683855205
0.1578555050775931
0.1767124825415655
0.1764289173994034
0.1580843950350948
0.1750012433051236
0.1935477063194058
0.1933355300488098
0.1586048740737438
0.1775919236290257
0.1774116474428099
0.1587457231295037
0.1745828908986127
0.1928099787950707
0.193077197114132
0.1584557357858161
0.1769739427904433
0.1772020841853637
0.1582745572022802
0.1754534047530235
0.1937480344707471
0.193907702503468
0.158963403643596
0.1777538614957195
0.1588591562454197
0.1778884854638375
0.1756551669961669
0.1940527317110334
0.1941641063629668
0.1590445094955683
0.178096518440136
0.1591156251501943
0.1780046101912104
0.1542610892926877
0.1729721375799857
0.1706533360524704
0.1399965122234971
0.1590860553345143
0.1568168304718082
0.1422339332427373
0.1679730294948048
0.137538037761168
0.1543188413092917
0.1908868146691562
0.1726070287023948
0.1903997329847893
0.1566692725446756
0.1753606105417599
0.1570267925220576
0.174933054409118
0.1898277617163532
0.1716283407422742
0.1892425476927307
0.1562930602561433
0.1739333847535097
0.1744530450760744
0.1558492822734592
0.168963869416391
0.1861856564307511
0.1870322274383234
0.1542418879376899
0.1712428552592031
0.1720134235428438
0.1535548704330507
0.1710525834482723
0.1885573847684181
0.1878533994592573
0.1548283868776528
0.1733516954800219
0.1727190189035965
0.1553799753192688
0.1751418292476629
0.1604975223554514
0.1770158447047173
0.1459007242683841
0.1610827077523778
0.1441512811697577
0.1628893406091022
0.1787807730764175
0.1636067044422181
0.1803021747175358
0.1473994320374976
0.1659367952185178
0.1644915697140067
0.1487726782615586
0.1671587224944811
0.1852006740592432
0.1841781531159916
0.1519594864552435
0.170385535857806
0.1528196003208948
0.16944202424867
0.1817457014756382
0.1660961219849219
0.1829890796134792
0.1510321762800911
0.1672289202985727
0.1683927633450429
0.1499485263369782
0.2153323754235636
0.1211929071858921
0.1049554284661182
0.1427626621336904
0.1235957173954504
0.1072734484407636
0.1452339072425954
0.212812328287296
0.1612147574636159
0.1971003337423836
0.1770452220766205
0.1945099995057843
0.1744586925485737
0.1637341416628632
0.05969391575728045
0.05907794442781771
0.05878317980886408
0.05380457048995861
0.05916936182490709
0.05935325035627046
0.05505958576251729
0.05756868478687801
0.1024546258911679
0.1022715956353746
0.1024468775967886
0.102101205843784
0.1008020398811818
0.05840476618188423
0.05868063504060415
0.05800888205016315
0.05808485322038444
0.05832281392968669
0.0581316442422523
0.05920988365289236
0.05937480209947375
0.05905274244582415
0.05810076220379738
0.03434405692436435
0.03733788713781368
0.036805646893537
0.03750367477243911
0.03799762932787668
-0.0001759457212829099
0.03717713757852346
0.05898448391295472
0.0369974791249691
0.05888215594483508
0.03665656872590476
0.03682946913135327
0.03413270382052035
0.03734435718230411
0.05924518296227207
0.03751901857106798
0.05931137810857211
0.03782510548576325
0.03767140183836733
0.03522441188039262
0.05607022313913829
0.03604154125853527
0.03720966686248872
0.05690605780358847
0.03672587519682737
0.03562837957339392
0.03573160638814495
0.03608610489620395
0.03579596765077241
0.0362044785134042
0.03664820989180491
0.03833356344636975
0.03811420656234596
0.03542880208670793
0.03740635835350543
0.03829316025620967
0.03779787494197875
0.03606354053162612
0.0584902649436169
0.03619943692760606
0.03649816107548524
0.05858518594481535
0.03634068783839956
0.03548674359842343
0.0580234164192037
0.03550639813149786
0.05804962028409898
0.03559380267814003
0.03554238567041496
0.03594461165410972
0.05825149936006296
0.03583439924608823
0.03565931194244625
0.05818596600817401
0.03574111173427158
0.03814959122324062
0.05931081726125338
0.03811212072821604
0.03794346953510692
0.05936048218401834
0.0380542557708648
0.03811046693447923
0.05882408150220106
0.03803320166729931
0.03760256146963593
0.05851106419499876
0.03784838841995609
-0.001992028295114318
-0.00232270252545958
-0.001643600636172594
-0.001295615796625829
-0.004922824466015696
-0.004891716110846906
-0.00418237937671924
-0.004360763526648198
-0.003978100460822778
-0.003754003431062486
0.0007100251884997697
0.000427543131457748
0.0004396727747875491
0.0009051582386550202
0.0009708235421810729
0.001161848761016801
-0.002948778193722452
-0.002646412953211045
-0.0005848394352075728
-0.0009350311783317223
-0.004754144562703325
-0.004835687222578702
-0.004647528481904446
-0.004517033500121104
-0.003238606091176026
-0.003504663876408472
-0.000229462493386082
0.0001018796594500421
0.001332805794709633
0.001168626655625847
0.001354659408717676
0.00130965834292324
0.1024797794257355
0.1024656296240336
0.05973065686951903
0.1024578976594882
0.05993828846818212
0.05981340170420615
0.06067893333294604
0.1023712138642159
0.06048196041565385
0.1024236398184612
0.06009772683930503
0.0602828486899948
0.0608520127556083
0.1018290909320532
0.06097208166460493
0.1014142026627879
0.06099987275869306
0.01699480310614867
0.0330592260675061
0.01588569148173291
0.01759400248404484
0.03715145923723735
0.01733423859817351
0.03698465859557681
0.01684809209742458
0.0170899126188319
0.01785016855778637
0.03768561255849447
0.01811633470098233
0.03783635707659364
0.01862787545748382
0.01837108799135197
0.01527213040840533
0.0356464009996709
0.01529744176759122
0.03568015023460524
0.01540923364116216
0.01534213647789686
0.0158721592062584
0.03597246871259124
0.01572553539010369
0.01549412198600328
0.03587976851539872
0.0156017521820122
0.01603273967987801
0.03634486161632483
0.01621579061104004
0.01662534189620473
0.03648538169545947
0.01640990737284632
0.01944230514030361
0.03828871855635229
0.01927867919499191
0.01886300784511498
0.03823259848736683
0.01908854719276796
0.01784084520712452
0.03624523475405086
0.0184909476024488
0.01928789610809535
0.03692645026842161
0.01896109417740773
0.01955194437874095
0.03822276981635116
0.01961128070344339
0.01949329725777389
0.038037757218985
0.01959284943794395
-0.001078542480456723
0.05231690509209398
0.07410725891137904
0.03285115651380818
0.05048854324254486
0.07214012447264527
0.03119577742907647
-0.002197585888743615
0.1016563536077013
0.06946521548456482
0.08673782800783343
0.08531759047551393
0.03141818339049946
0.01451315505827235
0.3662946242117461
0.3636963724226439
0.36476657519113
0.3641402082401631
0.3617111798761848
0.3621301981610653
0.365106674085117
0.3651527170220168
0.3626238174627897
0.3624603660126261
0.3178025730604119
0.3195082403145184
0.3173747855070867
0.3155487710134651
0.3158584507858059
0.3151295477650156
0.3139529287568477
0.3139576959612839
0.3194955446567868
0.3207225402306433
0.3189609313462601
0.318424055950521
0.3242890478115795
0.3225881092343207
0.3205617744066347
0.3224382485537062
0.3257598729834024
0.3271995917400907
0.3255586364078529
0.3240607537711183
0.3351093849233683
0.3364092822627295
0.3347065962856322
0.333354263352748
0.3287903785325519
0.3302996331879454
0.3285705449316658
0.3276360737964515
0.3337136344498423
0.3320789404910511
0.3301443731586202
0.3318607787588569
0.3569564935152831
0.3558866771484865
0.353820085712396
0.3545908312628982
0.3577956501539173
0.3583509671548369
0.3560156788372178
0.3553895949877691
0.3634102111012848
0.3632375692930366
0.3605805601950064
0.3608900880583009
0.36238168031969
0.3628793819064688
0.3601603618104768
0.3596341147610728
0.359606821345974
0.3605016554518183
0.3578960309640252
0.3572984490744855
0.3618521371619108
0.3612327806479683
0.3585274895387398
0.3591066006920356
0.3543123557536774
0.3535953973381859
0.3513145735985105
0.3521160193682424
0.3516311592699119
0.3527146111391656
0.3503777386191497
0.349285628149099
0.3504288561111283
0.3491486322287625
0.3472851329256564
0.3481855843227969
0.3384191995059158
0.3398595213021738
0.3379176581830737
0.3369619312120637
0.3427208077965271
0.3413602015722094
0.3392321674722495
0.3405835080419828
0.3472481786301538
0.3462717306338278
0.3442356304405603
0.3452721207950016
0.343933785510549
0.3451757062815424
0.3430863740089778
0.3418144392646863
0.363665999972051
0.3662633148571706
0.3664958051852683
0.3637292489027398
0.3630777992323274
0.3656187309027942
0.3661046214659023
0.363354271487951
0.3665126970902557
0.3663787614614537
0.3635798343370097
0.3637093670542301
0.3694581170290964
0.3682106295976627
0.3694490729507284
0.3682820903537445
0.3594294371741047
0.3655401011246291
0.3506048594640032
0.2694296394221964
0.3102860098596749
0.324318426955308
0.3377549562431026
0.3691314283570474
0.3711428965814497
0.371291739750186
0.3691037151954495
0.3694301441433731
0.3711713914043609
0.3712629453160967
0.3691176421501323
0.3712560799340436
0.3711390775062768
0.2434528009645191
0.2599751181777101
0.2599247981557005
0.2434056698583014
0.3223580576922189
0.3578866528970485
0.3561396678561235
0.3578655796470829
0.355971009385266
0.3682171091325955
0.3689450583857805
0.3681930927921228
0.3684164129311954
0.3676192276885742
0.3688430040509049
0.3710452917359205
0.371419248351037
0.3708728365116424
0.3715740020892007
0.3711975732080495
0.3718463701838353
0.3717146086585369
0.3657614326949268
0.3593274799754881
0.3657196609673177
0.3589174166240042
0.3652843728986769
0.3591698533078738
0.3500316667457757
0.3503310925071582
0.3500644472922028
0.2382813676618492
0.3235736274370014
0.1752265299795054
0.3043900557806525
0.3003611718830909
0.3273051521190281
0.3270652635387994
0.3001444995285646
0.269242807806705
0.3243574292868705
0.3102482033166673
0.3243244411224332
0.3099519021428563
0.3101472424473065
0.3240470562027689
0.3485487121309107
0.3482634624727964
0.3377141195082096
0.3375916125626535
0.3374244576373507
0.3421017848573955
0.3452059988587833
0.3183082782647711
0.3455627200298092
0.322713422470893
0.3186659491736773
0.3424768592472783
0.2757510267198199
0.2515755523152316
0.293509841337488
0.2452876320493143
0.3565477132896289
0.3655788226804955
0.3649600468923225
0.3655229638306885
0.3564478180167165
0.3578004282760049
0.3648569941080293
0.1884251839370659
0.1859315118592877
0.3592662527214472
0.3592907589521297
0.356103275825931
0.3584030428034247
0.3640590650651267
0.3640869538163588
0.3583450385565459
0.3556544338116143
0.3636184596295245
0.3588607776416761
0.3591851715858201
0.3559636232492123
0.3639887603237736
0.3581917649248052
0.3573138520371436
0.3650392443904156
0.3643766177087864
0.3653838849888275
0.3562605168630227
0.3576262659797101
0.3646735464161633
0.3710585290116726
0.3692899331081705
0.3690367282534135
0.3710617496907971
0.3693680632406259
0.3709695320135388
0.3711736256233948
0.367655389618228
0.3695624860186635
0.3698772590360583
0.3687431310417825