/*--------------------------------*- C++ -*----------------------------------*\
  =========                 |
  \\      /  F ield         | OpenFOAM: The Open Source CFD Toolbox
   \\    /   O peration     | Website:  https://openfoam.org
    \\  /    A nd           | Version:  7
     \\/     M anipulation  |
\*---------------------------------------------------------------------------*/
FoamFile
{
    version     2.0;
    format      ascii;
    class       volScalarField;
    location    "0";
    object      Phi;
}
// * * * * * * * * * * * * * * * * * * * * * * * * * * * * * * * * * * * * * //

dimensions      [0 2 -1 0 0 0 0];

internalField   nonuniform List<scalar> 
12692
(
30.43578477091038
30.43506931209145
30.42096324151036
30.42633282706606
30.43149552317974
30.42782496137861
30.43245522228962
30.43459742295236
30.35522311604258
30.41886789238058
30.41153524195126
30.39904031732663
30.4087297840743
30.36148057952919
30.37795238853685
30.39536618423284
30.38273323899814
30.66865331160076
30.66993064210586
30.65987160931095
30.65759795694086
30.67479912723877
30.67493605646668
30.67203701579728
30.67105763566368
30.58042176586602
30.63593642971258
30.63189425455539
30.65248024962712
30.65513673560273
30.62295902110658
30.62757446223344
30.59468623554278
30.58779986866737
30.42665164171558
30.42860732309821
30.43205907648315
30.43040777843125
30.53044163583663
30.50475384337125
30.56364582135768
30.50512430300296
30.56403065167306
30.53006500155443
30.53069257167929
30.50549424159779
30.56441477730404
30.50537090460331
30.5642867561114
30.53081831513332
30.36027533955602
30.42453528106402
30.42225081225313
30.41714855046828
30.41979158665042
30.36662085227557
30.3725448930174
30.38325214100776
30.37807768161721
30.66722253506338
30.66563424159045
30.58783431703148
30.58934869191036
30.64074800395257
30.61193279993577
30.61070137559689
30.64200327392377
30.63934161297197
30.60778936066081
30.63777997851677
30.60932165670797
30.59192912591938
30.59071226090513
30.51897525958172
30.49556324773068
30.55409591088976
30.49383855046228
30.5523038249279
30.52072753961022
30.51706504503388
30.48991541475308
30.54822731886608
30.4919580453031
30.55034981157253
30.51498978880864
30.4372611071046
30.43616295027312
30.43356565849058
30.43493242837852
30.66196461085207
30.66388350273719
30.58616494301928
30.58433533490264
30.63211436018597
30.60003788568847
30.60223057653631
30.62987939594669
30.63417189877826
30.60610036956748
30.63605856075522
30.60424915534684
30.58017323959311
30.58234024868373
30.52377639472288
30.49713680431261
30.55573095706212
30.55721427593975
30.52232599864494
30.49856433095743
30.52508202153428
30.55974164905593
30.50099655641076
30.55854977818899
30.49984956729782
30.52624743026508
30.44156768961505
30.44144951159415
30.44085854032485
30.44121331077103
30.6745251038893
30.67411339832914
30.5959150763574
30.59630785339504
30.64678861227552
30.61675890366302
30.61662712733075
30.64692308932838
30.64651931219915
30.61596590543387
30.6163630391659
30.64611448841359
30.59669976274882
30.59656918754131
30.67287127260219
30.67356271924978
30.59538978623241
30.59473049751716
30.64407312848221
30.61301900419159
30.64311065813587
30.61396316930954
30.59300250160098
30.5939354899125
30.6448931360231
30.61543460779383
30.64557296637883
30.61476759241321
30.43822968941849
30.43907166839353
30.44038427273651
30.43978914853931
30.52893008449489
30.50425855050275
30.56313123969153
30.5295616798014
30.56248542266361
30.50363700077002
30.52816875350756
30.56079291185242
30.50200821499845
30.52727518457596
30.56170674748421
30.50288763216579
30.42058875487788
30.47619556258772
30.44459388799643
30.52564005985811
30.55402422321714
30.50661842757868
30.63971672499661
30.6432494001171
30.56650027544758
30.56313389269679
30.60858869071734
30.57525563896847
30.5791533263069
30.60461534690042
30.61230426049697
30.58620369103613
30.61577637900886
30.58279774918055
30.55567861347901
30.55953140086272
30.50771133527915
30.47998966914068
30.53791328281723
30.48275024780724
30.54078184321024
30.504906877903
30.5103203460906
30.48770492924337
30.54593036512122
30.48531886907369
30.51274444528453
30.54345096791583
30.40454810955795
30.40802506799902
30.41431361250339
30.41127573983021
30.64962014993147
30.64654669171912
30.56964211187427
30.57257100056321
30.62484922213038
30.59766487267335
30.62746029868785
30.59510337838633
30.57782790854141
30.57529642152002
30.62203803587808
30.58938236903136
30.619017083512
30.59234586045028
30.49867628011872
30.47702862255209
30.53483640901082
30.53153941100795
30.50189946060756
30.47385566845831
30.4952281408994
30.52423808052834
30.46682889323651
30.52801144460935
30.47046041670801
30.49153943093997
30.61802881800293
30.61276203614852
30.5374430132033
30.54246310455997
30.59583244347817
30.57109081116874
30.60036919640228
30.56664061650516
30.55156130017316
30.54716199170924
30.59098660309737
30.55681022910604
30.58580979695974
30.56188792206481
30.40083278108693
30.39686249642774
30.38809175538871
30.39262234555876
30.46346603213556
30.44458630426158
30.50112764732243
30.43918201871016
30.49551280706582
30.46895348664943
30.45760051371465
30.42721625904439
30.48308107006312
30.43340332421707
30.45131938003478
30.48950894424485
30.60111957951685
30.60713486201864
30.53207978398569
30.52634630182719
30.56804390346345
30.53274987739361
30.56127557167846
30.53938742739546
30.51365079022804
30.52021481632138
30.57436673017117
30.55138617674053
30.58027900815983
30.54558758256895
30.4788905158477
30.44964105745863
30.50637952238012
30.51129592303307
30.45437294247384
30.47408512413926
30.48338720033371
30.5202059862538
30.46294834964421
30.48759883172053
30.51589742868589
30.45880161644829
30.49734509700153
30.47046640288953
30.49721817271789
30.46477788451832
30.43566317494317
30.4646500928216
30.47034537574938
30.49696886550027
30.4697420974609
30.43542495254248
30.46403906922932
30.46440351648743
30.47010408366567
30.49659879438691
30.48391716508769
30.4496997965284
30.42290781011482
30.45526016562626
30.45725371240576
30.45167444326984
30.48189518541764
30.48578059125663
30.46077206960007
30.42469071472338
30.45515447929698
30.45908876398425
30.45348673820528
30.48748807508429
30.49173507815822
30.46040139202946
30.43040320132819
30.46607466167798
30.45929165428542
30.4649551695949
30.49287092342399
30.49046106427556
30.46230764211462
30.45667147450488
30.42918427995347
30.4580521999978
30.48904761688329
30.46370093379945
30.49474519770194
30.4613775326823
30.43329300041774
30.46706194176201
30.46222904914977
30.49387401801697
30.46792030441227
30.49548883177276
30.46925846513536
30.46355699972359
30.43400445788064
30.49610548704777
30.46295330498547
30.46865168542501
30.40635350432032
30.38303982604289
30.38762910096046
30.34847501570496
30.38069286625919
30.41336747436194
30.37621378614963
30.47734366020276
30.44757032916122
30.41659672589181
30.45310320455426
30.45077456739081
30.44526439890952
30.47970522891846
30.474799526298
30.44557422728836
30.41416244188234
30.44012417286059
30.44826826486476
30.44279107192689
30.47206779580254
30.46263610564448
30.42744036462174
30.40249487294228
30.43273265481775
30.43094529296622
30.43627632430549
30.4590443272233
30.46599676773203
30.44268517274557
30.43727455502693
30.40571073241485
30.43421060383857
30.46913585497777
30.43958882878835
30.42601068166424
30.3893703797591
30.36735584674369
30.3940909874016
30.4001261361764
30.39531913320049
30.41990337646876
30.43171601307717
30.41103383353143
30.37281730310882
30.4060536498199
30.40576155210319
30.40085063840327
30.43705429511814
30.45110503688854
30.42371136264995
30.39142269024538
30.42894696201643
30.41971176697941
30.45520500974788
30.42490079439456
30.44672579422384
30.41596400130618
30.38723153685494
30.41090000593543
30.41546031502119
30.42058076834548
30.44204922349341
30.81652224526939
30.8353248916379
30.83623492862839
30.83536371197378
30.83619597231224
30.8362456687984
30.83538427894027
30.82517052223746
30.8039306770962
30.74922500870705
30.67865318184228
30.76970257307119
30.78785703874249
30.73853238353333
30.71544960416293
30.5224704029348
30.60647585483648
30.63457273148975
30.6899618815547
30.66224792787833
30.83356249229555
30.8308870393252
30.83084927528846
30.83360090953681
30.83095287107126
30.83364958098736
30.65349735485277
30.65334944005888
30.67850773533209
30.57757152763814
30.55435210551797
30.58516551176226
30.60633628328889
30.55421894377411
30.57743081987515
30.58503354534934
30.81231300968995
30.81501319102895
30.7138577252068
30.72132455830306
30.74292838065759
30.76511687213539
30.74856337057228
30.7977123097822
30.80449982229687
30.81107324429161
30.8061897989633
30.7951045682108
30.78573277654646
30.76940215803375
30.78229351698452
30.82093622416372
30.81319473634074
30.8141783653942
30.82365065464777
30.72207835615641
30.70559451381288
30.69554879927795
30.72930422347946
30.73670875876151
30.75125232919064
30.77354542622784
30.76032327435799
30.75465412317829
30.8062641501046
30.79993147687175
30.802402089956
30.81309919382846
30.80959740486869
30.80799635659987
30.79205363412657
30.78874999354619
30.79424606046554
30.77401709977739
30.77824343914321
30.79977399004935
30.80246464278181
30.79835984378402
30.79359122454959
30.78528340053042
30.79202248763757
30.7697178385844
30.78250704167712
30.77335458034721
30.80069122789866
30.80163130833931
30.796628922229
30.79504634360723
30.78755440520237
30.78990964422451
30.77933994245885
30.77633246517638
30.74518785372632
30.65063252713989
30.69979291208256
30.65831247437453
30.74399597431216
30.73114914399575
30.70428788397399
30.72857177900836
30.72241497384993
30.7212502364446
30.70858179726178
30.62935026379962
30.67771952227619
30.63690828508751
30.68215195527673
30.70604885789328
30.70206445691841
30.68434194058073
30.75289226562845
30.73650922850991
30.67847923710974
30.70953364581809
30.73087569432415
30.73950868124905
30.73769847406237
30.71614447703621
30.75712723197422
30.71959395675777
30.76562132657976
30.74621787489268
30.76666358298041
30.6423854406287
30.66988000426935
30.66153497919288
30.69498021956746
30.71965539291462
30.71478186109551
30.66549122085399
30.67763545318439
30.68490514180479
30.74264807743589
30.76439727781942
30.7630102029132
30.73352393738753
30.75141421425162
30.75381400589255
30.70849754564463
30.72418461932882
30.72843302776111
30.72578941132449
30.74879365501161
30.74596023645285
30.7242852768599
30.67475919908222
30.67656768990335
30.71846051873569
30.67363662755227
30.67094061389969
30.71307001018011
30.63649965854685
30.64076430827786
30.61253032024068
30.56152438748499
30.54569532256914
30.66792020294099
30.63153732035049
30.62207081016809
30.65056824038949
30.56863674302969
30.58153521354568
30.69018644079635
30.63582245357891
30.6435895983963
30.70037295260065
30.63410147070622
30.62871837032839
30.78374158988903
30.78477030663355
30.74709068279233
30.76827580259703
30.76754847467948
30.78642022291457
30.78566939546128
30.63352178103826
30.65254998011092
30.69367542203036
30.68697520507001
30.67856041865364
30.68409780593255
30.66942452897681
30.68983444205283
30.7039966196561
30.7095553778579
30.7479131119796
30.73728391732219
30.73235006992413
30.742217027584
30.72138300437399
30.72699255206258
30.67220422333762
30.69807817890965
30.69172255296303
30.71706734837539
30.69472650917035
30.70207900897476
30.72444220531526
30.71547942270334
30.70905494435338
30.74115347993888
30.75984782160678
30.76149440902049
30.78245755139149
30.7809802879908
30.77783565957753
30.77943992559269
30.73570530165662
30.75803700650388
30.75602287556985
30.76938754590028
30.77178170338299
30.77607173980102
30.77402737972634
30.71244523028161
30.73620488590998
30.73243660177684
30.76131636884941
30.74178055786875
30.7460281951521
30.76549434969353
30.75398876381301
30.75009581868317
30.72280238478477
30.73970581902226
30.74294127734054
30.76670675934142
30.76378121587693
30.75755009386852
30.76075669966396
30.81547776185811
30.83526765435838
30.8360263450167
30.83517666156812
30.83612868973349
30.83503793793667
30.81627393814925
30.8159635111273
30.80357796329736
30.80281435627
30.80307721768875
30.7478086978691
30.7483731916299
30.7028520893997
30.72555860069825
30.65265505282481
30.74908102816872
30.76954713845237
30.74879475488038
30.76883207168021
30.76924717751429
30.78765861606601
30.78693157434681
30.78730885930461
30.73451130332813
30.73333155835817
30.72054523981668
30.64042967871966
30.68936069573737
30.64808074732099
30.6938382752346
30.71798508789571
30.7376822518127
30.73711632964632
30.72886978022616
30.72706276374805
30.67398768964512
30.6681495536424
30.70563018549502
30.70905855195284
30.73838965722247
30.73553384603734
30.73199684794413
30.72290719294402
30.63221803724973
30.68457200562053
30.65522644432746
30.69802961675286
30.71522197368053
30.73810534575836
30.73640131156215
30.73051077867316
30.72507769944338
30.62339191476217
30.67945369555165
30.66190554331651
30.70195579078466
30.71225076925196
30.71530977962391
30.71502985062151
30.71032325490464
30.50796764618845
30.69769995479081
30.51742109780947
30.71148063338168
30.51944315395403
30.43492387478132
30.6186767616858
30.67136955129885
30.50356354616584
30.69517792879929
30.48581360882091
30.66694823160333
30.44794960670314
30.62622785688338
30.4781132917455
30.52195137895796
30.57676818027205
30.70592296782148
30.62969068902766
30.625516687407
30.56348637450828
30.51171663120311
30.56543074022995
30.70413357300152
30.61771118225092
30.6238162478342
30.57285693637589
30.51485551443406
30.57033392228896
30.71460982383601
30.63375923391428
30.71404778388245
30.630785121001
30.63322168450736
30.52094621469429
30.57390495221447
30.57559881065776
30.4899147014529
30.41997875060559
30.47483691285885
30.5429393260771
30.68299873663938
30.59276990424158
30.60378540245064
30.5590804444825
30.49844968498267
30.55395033307218
30.68637714803413
30.61532238716147
30.60698372214723
30.54123933743785
30.49255982325891
30.54473996893044
30.65178321202983
30.58858268747185
30.57422635797067
30.49668327289382
30.45934550827782
30.50897566173315
30.6460224637981
30.5500675037112
30.56877886810838
30.53348063073691
30.46933947930363
30.51974283160488
30.70901251243421
30.68491631647414
30.68362766564938
30.7000288709661
30.67248368579434
30.67477624872281
30.68982440138141
30.71248583887932
30.68605361155339
30.68704181765012
30.61057454415537
30.59469888380051
30.58672458549153
30.67550744854522
30.64656765759737
30.65064203915951
30.6924557590526
30.67000172615432
30.66732281527127
30.66222335303731
30.6422138802413
30.63756204591285
30.63327729994442
30.60213155217956
30.6090699610587
30.70754707394488
30.68058426164298
30.68218500570034
30.65728545214852
30.62844971917036
30.65602088823429
30.65303234393564
30.62706022457822
30.65460466332657
30.70217119462366
30.6788200779446
30.67688616563042
30.64507827161307
30.61991959408287
30.64732871948667
30.65129952645953
30.62195173073497
30.64940011634178
30.6891344565136
30.68954877465964
30.63443436955523
30.66211038076014
30.66142837970948
30.63416308814194
30.66183729344473
30.71334074057028
30.68857994899749
30.68788315918624
30.65840116810851
30.63173708556882
30.65937104463952
30.66088236308937
30.63254820850059
30.6601972651838
30.60186874781942
30.57815778679077
30.56879100901935
30.53528883635253
30.56097821303702
30.52708476153266
30.55258989724201
30.67937908620863
30.65801491588687
30.65445299130845
30.6196481391113
30.59669160109006
30.62364629801077
30.63088006592231
30.60035718124461
30.62738515991121
30.68952568083885
30.66133966042893
30.66443877605944
30.64264264202482
30.61274281179619
30.64001350109653
30.63414200422476
30.60996748497316
30.63718341050302
30.65717555176468
30.6272850102485
30.63259309582444
30.61537668593612
30.58410688235911
30.61081277134936
30.60073294015355
30.57933087052704
30.60593930405782
30.63986380312513
30.62161420192737
30.61555238576372
30.57607368600676
30.55673087414233
30.58287476901061
30.59517250330684
30.56295315069913
30.58922866993501
30.72342609444089
30.69905286349627
30.70004639583063
30.6979095985077
30.71993187378692
30.69661481091014
30.71092018254596
30.68543192525073
30.68773307397043
30.62123903000914
30.60751216002259
30.59954342203526
30.67298114950106
30.65506907214739
30.6504072571752
30.61494054718033
30.64397002551549
30.62188112383145
30.65943213958169
30.68630214453586
30.66351688316804
30.68294056448342
30.70331449760428
30.68025141891252
30.7008922740851
30.72499513666078
30.70159302583231
30.67573571532673
30.64965218655692
30.65061263476584
30.65142936567371
30.65211052972867
30.67725853813363
30.69516642855835
30.71683191161829
30.69356026806251
30.64855180001922
30.6723643192423
30.64730083792456
30.6443498498658
30.64590487781306
30.66935994268509
30.68985032573515
30.71503837622735
30.6917906066016
30.63872392083763
30.66136610732442
30.66362842758336
30.64264228528647
30.66570974847566
30.66761891973149
30.59099198350604
30.5538648781006
30.58486669131597
30.57705276879731
30.56867770296132
30.64542958178876
30.66251375155414
30.6401124328301
30.62695728577472
30.60724104122127
30.60274197520888
30.5928321484336
30.59795981832378
30.61684890661779
30.6283664235849
30.65674109005795
30.63443503150027
30.59214891082412
30.57531751560577
30.59895917108591
30.58738248553578
30.60532007268009
30.61127745846933
30.66733821168641
30.69382049660931
30.67091145718844
30.61143663415744
30.63983666504685
30.61538092698938
30.62250599917886
30.6190562023094
30.64710040438376
30.67735710048236
30.69721202438419
30.67424708873121
30.65891868482399
30.63150378012177
30.65627583622152
30.62571457333888
30.65343268354919
30.65037627565401
30.83353410087184
30.83097572076865
30.8308415688494
30.83347933938115
30.83039914214213
30.83316763432446
30.83088240310727
30.83335904485517
30.83069060531508
30.72626248967535
30.72640449155796
30.7029953307877
30.70215152770054
30.70257056781568
30.72598008619538
30.67781051692061
30.65306802390942
30.6782264636903
30.60566726353422
30.57716236344851
30.60606595666121
30.55395951119932
30.5843814653784
30.58477225224216
30.55357381171342
30.56136491953494
30.58993585752261
30.59209946616754
30.5404230678892
30.56879334380013
30.57093898459685
30.53832092867073
30.59409076581489
30.56722256840992
30.59591783776094
30.5423504869346
30.57472516627941
30.57291344093655
30.54412569356795
30.57166412511551
30.60167510159371
30.60045905548004
30.54852634614862
30.5804321318321
30.57922689962773
30.54970746085444
30.5688502644222
30.59758448631539
30.59909714447922
30.54720842620185
30.57637743753199
30.57787714161976
30.54573883279172
30.57482062113484
30.60274789809305
30.60368101628108
30.55165136934761
30.58149483405403
30.55074530017416
30.58241912285211
30.57624875633069
30.60447683525449
30.60513801212375
30.55242101942648
30.58386022551318
30.55306265410593
30.58320657223446
30.48260769550505
30.5167804651901
30.50930327598222
30.4600273312728
30.49608077704209
30.48863144099571
30.46730854863087
30.50130318793089
30.45225766248185
30.48064044207347
30.58759568092189
30.55660330622948
30.5850688504231
30.53360068128638
30.56647254124145
30.53605579223637
30.56396631733482
30.58235058427851
30.55108592085791
30.57942820141545
30.53096930754469
30.55837060261134
30.56126982130345
30.52812956556315
30.53747694714546
30.56551045967019
30.56935051876967
30.51835908490222
30.54455609641848
30.54836830259358
30.51462615857862
30.54803001861889
30.5762963493568
30.57293909035178
30.52183441977537
30.55526270883001
30.55193104939563
30.52509729187952
30.52373974193725
30.50305665818689
30.5302561326539
30.48040422993302
30.50301976974073
30.47406199296365
30.50950464311229
30.53633620040994
30.51455373787886
30.54203593205111
30.48630088019202
30.52122638156189
30.51555898649655
30.49184601041336
30.52918875095958
30.56141240315689
30.55703065890621
30.50639581359425
30.54048532402072
30.51065627910987
30.53613349884841
30.54736243651766
30.52463438357062
30.55235829122277
30.50186820551535
30.52652498994373
30.53148927908818
30.49700939962923
30.5725057017529
30.42962580957905
30.40583759956538
30.46087077137841
30.43737537030849
30.41347664815305
30.46880694010092
30.56400035430116
30.49096646397828
30.54624412549077
30.51801134533011
30.53788566209635
30.5098176444776
30.499072753359
30.40311703164785
30.39073220326404
30.39599932504841
30.32610255511035
30.38867102476795
30.3814764604006
30.33227804746068
30.3484694057427
30.46401688486702
30.45310527105562
30.46208967662938
30.44892596693711
30.43211295155717
30.40106641788239
30.3974667181552
30.40526292061808
30.4045709185024
30.40200984217818
30.40410877645391
30.36920514458893
30.37871569612827
30.36558750021117
30.3531808471865
30.29288559119204
30.35560721911747
30.36072329171495
30.35360171799497
30.34661527238719
30.22586373168584
30.35848378038212
30.39263720435277
30.36034573921762
30.39439077806946
30.3636321450943
30.3620599773879
30.29528705624892
30.35646877444773
30.38644582773859
30.35429379469001
30.38405082672284
30.34943599740249
30.35195235343696
30.30132888406692
30.33804554137811
30.30696919175492
30.3171636222059
30.34343106143867
30.31223709498622
30.36973524509895
30.36905805496575
30.36656704289202
30.3686072705657
30.36564859765793
30.36215144417128
30.3346981234369
30.34393014605023
30.29887446167429
30.31456933405196
30.3311816362086
30.31914499321651
30.36858496240959
30.3999966621948
30.36753944297443
30.36506658356563
30.39879812578374
30.36636785342385
30.37268493223823
30.4051473281803
30.37257250761128
30.40491680542259
30.3720099787676
30.37234769792065
30.36950714789923
30.40283006391001
30.37030876177609
30.37155845351089
30.40352895525376
30.37099186778494
30.33743929986649
30.37259144521366
30.34074960367255
30.34673684304072
30.37575687881633
30.34384457640217
30.33390193393253
30.3617209836143
30.33012195435143
30.32177145915764
30.35759268170015
30.32608490562774
30.28566026963384
30.28742210675849
30.28375359880231
30.28169557898816
30.29909716966723
30.29899096864055
30.29609089122532
30.29684937537954
30.29521830394975
30.29422901806875
30.26574762374226
30.26887980610767
30.2315807208873
30.23691762649198
30.26240060886466
30.25882412053413
30.29053181350569
30.28904418382668
30.2770990060308
30.27948003227401
30.29845896442217
30.29877840587578
30.2980317913269
30.29749572172707
30.2918891316156
30.29312042504886
30.27454499793905
30.27180830529305
30.24656344401563
30.24190210975591
30.25092322900365
30.25500440463476
30.46692283564199
30.4664207499797
30.40264579479055
30.465454309315
30.40033633576248
30.40172222366708
30.38974291849254
30.45666555570731
30.39320421771075
30.45964879360337
30.39847031365818
30.39610205594686
30.38567655983823
30.44407697608437
30.38095445355169
30.43849720163709
30.37551506718656
30.26016152450392
30.2864695735237
30.25386349651701
30.32156696659321
30.35745578858088
30.32337685122475
30.35916225120055
30.32657129756969
30.3250430618332
30.31960848418552
30.35144267210407
30.31749439829683
30.34911278510491
30.31277292350201
30.31521873596772
30.33537154573294
30.36962124942319
30.33526215569767
30.36939504131054
30.33471514146442
30.33504350257781
30.3322820836948
30.36736332646407
30.33306133311962
30.3342761703816
30.36804398227885
30.33372537002208
30.33138567326173
30.3646102573912
30.33036933803412
30.32796558642442
30.36344363487781
30.32923051687034
30.30111385069297
30.33798220056429
30.30433101390645
30.31014973588704
30.34106010478501
30.30733868212948
30.26602935586494
30.30446033290387
30.27150894679889
30.281412766201
30.30968738005059
30.27662605522216
30.29767655069913
30.32743271166619
30.294003194312
30.28588930906736
30.3234214233294
30.29008073346495
30.21972849736947
30.31947378713055
30.35346549853291
30.28880325486217
30.31235753854663
30.34615150031535
30.2818391995296
30.21313868054298
30.39883170759723
30.34127226444043
30.37324676863515
30.36893808125661
30.27957603892636
30.24710167935172
30.82784645551309
30.8241087178109
30.82507962832634
30.8243773325002
30.82067570296069
30.82126357154628
30.8255350622951
30.82574540650953
30.82198781471836
30.82171163208932
30.71389029476968
30.71819461531063
30.71441166843337
30.71025909576259
30.7092334475432
30.70419425024497
30.70099071912321
30.70568096652249
30.7306195123468
30.73475725587704
30.73112186785195
30.72728788266799
30.74229020623925
30.7385994342135
30.73490602450923
30.7386564955079
30.74578142071965
30.74896232374205
30.74520371846416
30.74209766800584
30.77003603901086
30.77241930049273
30.76865348651125
30.76630437826427
30.75839133198077
30.76160215785422
30.7579093332243
30.75495536750022
30.76737405720577
30.76455038597191
30.76081174923625
30.76368059191187
30.81214177054244
30.81073822964268
30.80710598570629
30.8083571842026
30.81328858812754
30.81418394862028
30.81040813207215
30.80948417497157
30.82270898421968
30.82229913986765
30.81846795094265
30.81894960769647
30.82094695553551
30.82166433839144
30.81783418018782
30.81708514120832
30.81719382052015
30.81835428773165
30.81453258884798
30.81352589499953
30.82015802206087
30.81929361187382
30.81544806545386
30.81630813301303
30.80692696073266
30.80576378902334
30.80196834667483
30.80316151964506
30.80283466718623
30.80435796872454
30.80058043175207
30.79903173987155
30.80121398025315
30.79936234870221
30.79577039175575
30.79743627913563
30.77965841142716
30.78218342170394
30.77843483007985
30.7761354912715
30.78665512943168
30.78446658142411
30.78067297059119
30.78288032618398
30.7942260922374
30.79260189231621
30.78882637568217
30.79045823428432
30.78873826622103
30.79072707515862
30.78697329451798
30.78493172242829
30.82399151829526
30.82773252785917
30.82785354896491
30.82401631035879
30.82305983765182
30.82677713548501
30.82727977145787
30.82344638078088
30.82775324744697
30.82756113861909
30.82372119046747
30.82391592812882
30.83758845666754
30.83383140803817
30.83758317674853
30.83380279160613
30.81954874420873
30.82806849882736
30.80855610106027
30.71306259463294
30.75880861636714
30.77744636329757
30.79396599562169
30.83833265975415
30.83604113251174
30.83689847842637
30.83829555033152
30.83755147112583
30.83607945573561
30.83686002743028
30.83833120558106
30.83690436761786
30.83608684639385
30.67240500012472
30.69586376001043
30.6957099246347
30.67224889127235
30.87995400687756
30.8458125594128
30.83380657031254
30.84022736623195
30.847291321845
30.83369273153269
30.83810686340629
30.83337770935608
30.83727070515778
30.83274665930312
30.83795499920906
30.83460306775151
30.8351726322436
30.83431126171808
30.83545300612563
30.83484679096659
30.83588150896122
30.83569044001691
30.82798431741014
30.8194641503262
30.82768739637252
30.81870576428001
30.82722385575271
30.81922591804621
30.80762253355541
30.80836001784424
30.80801122484541
30.73854494029858
30.86687841858244
30.57599118373507
30.82477263380975
30.75135427785708
30.7853232014487
30.78474185466363
30.75076750055406
30.71247319180566
30.77729177731398
30.75866142530908
30.77699230633306
30.75794755715382
30.75837149351527
30.77657593865419
30.8137702930358
30.8131677452446
30.79378793927355
30.79346196307037
30.7930674890014
30.86067441070382
30.8525441803569
30.88667477148076
30.85312056323631
30.88052435410816
30.88724529834136
30.86124950194156
30.94388592101066
30.9885916414525
30.91968130143785
31.00008233452116
30.84817183957299
30.83868797873978
30.84135417858762
30.83849768034104
30.848024233982
30.84565725607999
30.8411968943238
31.14232022755505
31.14703501675857
30.8257218147952
30.8255231381463
30.83363702514849
30.84111195592617
30.8334980111452
30.83330653856986
30.84094760634802
30.83292671931504
30.83256976910327
30.82479619935936
30.82517900265956
30.83332158177627
30.83296905993454
30.84063584528072
30.8449291617988
30.83775288838185
30.84044763526015
30.83816340629792
30.84772694262912
30.84535255947134
30.84088818345805
30.83597164874949
30.83735561313398
30.83821977401419
30.83668159349119
30.83747206690451
30.83586628822659
30.83678884508506
30.8298680236122
30.83257542005398
30.83290425634775
30.83652344691591
30.83501758794738
30.83583470952392
30.83529401360841
30.83753755729573
30.83678649863165
30.83610932827316
30.83552889099434
30.8372012433352
30.83653380661725
30.83776512153025
30.83571964997278
30.8370113678278
30.83634306275087
30.73799575768469
30.76870252859357
30.71923516186428
30.68340385962111
30.68395917823334
30.71980817343566
30.76926890472055
30.84810455729678
30.836676945021
30.81377467971398
30.83724921348405
30.86745284780173
30.84868482009838
30.81435421446191
30.79415335950365
30.92879256263324
30.86819279494923
30.9471807674949
31.17595134832366
31.21802054328861
31.09077426501719
31.11599575470032
30.70727550206246
30.62537853588199
30.6715588520076
30.62956176621493
30.57653562311811
30.63011652721135
30.6721338599808
30.62594034497266
30.79796026057922
30.75373692700447
30.78567544600725
30.82535476146078
30.75432047990982
30.79853793891256
30.7862606837037
30.73918080125954
30.71778204390774
30.73903323490217
30.71763142390125
30.73831886343146
30.7169167219111
30.73874455654954
30.71734169953854
30.67153712609721
30.69499573885891
30.69541901212602
30.67195781156255
30.83379477480292
30.83606302552466
30.8360998429432
30.83195523839069
30.83442225377673
30.83199289348573
30.83446029981618
30.83608341188105
30.83204480525251
30.8344708823831
31.20289432498798
31.20496094534652
31.20242131807677
31.20448657475786
30.83597272231567
30.83193164516868
30.83435636393981
30.83354834347249
30.83185493579879
30.83584466644729
30.83425298944993
30.83391613184174
30.83170788787051
30.83318810714144
30.83568313046031
30.83410691678253
30.83151704947002
30.83549342067846
30.8350254201376
30.83097577703722
30.83340240053117
30.83368071473724
30.83298059363869
30.8312825652986
30.83527621423376
30.90328350114574
30.88771671909136
30.9308538967663
30.90271023617113
30.88714134147985
30.94332076641632
30.93028929411375
31.03685520622524
31.02750539211344
30.97759309426566
30.98804000307526