/*--------------------------------*- C++ -*----------------------------------*\
  =========                 |
  \\      /  F ield         | OpenFOAM: The Open Source CFD Toolbox
   \\    /   O peration     | Website:  https://openfoam.org
    \\  /    A nd           | Version:  7
     \\/     M anipulation  |
\*---------------------------------------------------------------------------*/
FoamFile
{
    version     2.0;
    format      ascii;
    class       surfaceScalarField;
    location    "0";
    object      phi;
}
// * * * * * * * * * * * * * * * * * * * * * * * * * * * * * * * * * * * * * //

dimensions      [0 3 -1 0 0 0 0];

internalField   nonuniform List<scalar> 
36641
(
-0.001249204991805783
-0.001314309152991146
4.958224374601848e-06
0.00117205985037988
0.00138650934838173
-1.327833909472664e-08
1.990530246738444e-05
-0.001245950886973061
-1.492892487047149e-05
-0.001312139872535594
0.001384031553922575
0.001169082827989955
8.86850210408982e-05
-0.001300778120915865
-8.226241782398681e-05
-0.001231319726377667
0.001371057560695892
0.00115461768338086
-6.31550427159841e-05
-0.001236416324792079
6.946773375888319e-05
-0.001304588260513533
0.001375749328153998
0.001158942566107987
-4.061702986621742e-05
-0.00130853274713997
4.62081430023208e-05
-0.001241494731608587
0.001380212161800667
0.001164224203812556
-0.001237964497867759
-0.001305800698650883
-5.750446733050036e-05
0.001376912376007671
0.001161202245116852
-0.001309377179804571
-3.543325719828121e-05
-0.001242530846096054
0.001381013115640532
0.001165711137585538
-0.00124503834552718
-0.001311417556429506
2.50480783068443e-05
0.001383324885665228
0.001167988240442672
-0.0002648840439391958
-0.001258842179904997
-0.00116450430904125
0.0002855212377695665
0.00131991165517565
0.001082797639941231
-0.001299127828196882
9.607835490454583e-05
-0.001229140698082884
0.001369461418611066
0.001151413773796712
0.0001187396777726919
-0.00122214153133391
-0.0001111396969105854
-0.001294076145343086
0.001363154783057332
0.001145462912757119
0.000155507341352917
-0.001285511063136243
-0.0001461405653273381
-0.001209836590860624
0.001352891574227218
0.001133089303743586
-0.001219192554078661
-0.001291939653432576
0.0001277165882451343
0.001361066029105407
0.001141089267926762
-0.001262445821386371
-0.0002485676290379669
-0.00117162905034237
0.001323793249965671
0.001093965206856395
-0.0002023553587438967
-0.001188256473192258
0.0002172427030954499
-0.001271744395605637
0.001336626462058772
0.001108487062388744
-0.001282847518516714
0.000166825719120117
-0.001205909979215969
0.001350244005866494
0.001127195114093768
-0.001193494988893278
-0.0001902986066816044
-0.001274942714544479
0.001339893947465961
0.001116487003902957
-2.771493323378803e-05
3.10403993186533e-05
0.0008957147928449555
-0.0008990402589299813
-2.445581408904943e-05
0.0008964380408869437
-0.0008996971600362638
4.932620722735054e-05
-4.540439173115758e-05
0.0008908894451951999
-0.0008948112606900714
5.339811822790128e-05
0.0008896333760325347
-0.0008937052870370578
-2.974928037107911e-06
5.949292343429578e-06
0.0009000140639349494
-0.0009029884282415865
0.0009004586604257053
-0.0009034310099230779
-2.57854272978798e-09
2.125353520223431e-05
-1.810383425879411e-05
0.0008976624034917751
-0.0009008121044349209
0.000897087802036129
-0.0009002900809310394
-0.0001600655368301301
0.0008465654439186541
-0.000858239883166973
0.0001717399760788484
8.769021256109607e-05
-8.201111419307286e-05
0.0008775660178754481
-0.0008832451162436934
9.371220304180128e-05
0.0008753241508931698
-0.0008813461413780675
-5.763564380564871e-05
6.205373842411733e-05
0.0008867873933199828
-0.0008912054879377754
0.0008882647387556065
-0.0008925022643408724
-0.0001001255706997684
0.0001069549333313242
0.0008703641953439957
-0.0008771935579757617
0.0008729250174856598
-0.0008793383851504335
0.0001493947388492848
-0.0001395664218319789
0.0008545732290368369
-0.0008644015460545706
0.0008507153432811385
-0.0008613861412701383
-5.219641232177068e-05
5.648538189263455e-05
-0.001636041091901203
0.001631752122330932
-4.805406648028529e-05
-0.001638199525131213
0.001634057179284938
4.407271690364619e-05
-4.021083118170026e-05
-0.00164200003315511
0.001638138147433388
-0.001640172799476239
0.001636191449890714
0.001633112324643248
-0.001869082718076869
2.036737933240543e-05
-1.354453447662009e-05
0.001296769315156672
-0.001067621766577842
-1.060202880987137e-05
-0.001632327277814874
1.417408149229152e-05
0.001628755225132104
-1.478764603359198e-05
0.001867963070727392
-0.001090159665310369
1.97703004908717e-05
-0.0007827860598754022
-7.05800165504722e-06
0.001629568297469837
-9.844153014332354e-06
-0.00109073213293471
-0.0007832940781799062
2.724544835578461e-05
0.001295517266514757
-0.001066759542656535
0.001633924554673956
-0.001870291570349933
-6.750590165222324e-06
0.001298180309835805
-0.001068607238484495
3.529210832775394e-06
-0.001634668511020661
0.001631147738371442
-8.438183211408177e-09
4.921644739718926e-06
0.001871440003156089
-0.001091891554038263
-0.000784460818051534
-9.27580521635347e-09
0.001630395763833721
-0.00109133260823666
-0.0007838814704082341
0.001299590883073888
-0.001069584723822286
1.474269114449697e-08
-0.0001693652932634125
-0.001564793051313371
0.001552399665177775
0.0001817586793997722
6.097148655252541e-05
-0.001633727924693712
0.001629241820028298
6.563628977372741e-05
-0.001631212212021907
0.001626547408796423
-7.054141837297289e-05
7.566393597870488e-05
-0.001625628438004245
0.001620505920398846
-0.001628531872518525
0.001623626743911422
-0.0001581128712972297
-0.001571369207143129
0.001560116785173587
-0.000147671055748741
-0.001577662490331542
0.001567220674780248
0.0001381051557468303
-0.0001291691841150948
-0.001589026573598968
0.001580090601966969
-0.001583476179108985
0.001573910279099824
3.445410159017047e-05
0.0008949171982621762
-0.0008983309005386642
0.0008940457818843626
3.797657367141033e-05
-0.0008975682539696934
-3.368200939238661e-05
-0.001087521960084693
3.712944233768517e-05
0.001084074527139185
-0.001088492705313835
-3.032874438012026e-05
0.001085139440297535
0.001521906891043593
-4.699482817218948e-05
5.265010240537127e-05
-0.0006318473724372989
6.226010386521236e-05
-0.001523129867702423
0.001090162083902427
-5.492093872396139e-05
-0.0007551224365199705
0.001180751055177819
6.975771336803546e-05
0.001089368547011252
-0.0007546888349534739
0.001179729569465002
-4.146066038874231e-05
-0.0006322259946202321
5.845923307569503e-05
0.001520549988039325
-0.0006314419204596364
-0.001519061657540603
-7.746857926310105e-05
8.539174746506959e-05
-0.0007537324369610349
0.001177348966207574
6.443987206127101e-05
-0.0006309965146587995
-0.0007542397757415618
0.001178586192547122
2.706610974577844e-05
0.001086971367353596
-2.387539320820766e-05
0.001086105912363904
0.001620464852736055
-0.001853090703823239
-9.489023315172653e-05
0.0001034534279113791
0.001283681101520319
-0.001059618445190096
4.934653096586815e-05
-0.001622251775145624
-4.502375419880408e-05
0.001617928998378795
6.882940933354689e-05
0.001855295410824378
-0.001082898742322037
-6.280013082315803e-05
-0.0007784259470124296
5.380607974606041e-05
0.001616005303938683
7.505082430800318e-05
-0.001081615686586306
-0.000777696432229919
-8.657019654497987e-05
0.001285386560549675
-0.001060662961509392
0.001618534753306162
-0.001850679644513693
0.0001123793743002954
0.001281911442338451
-0.00105869249753217
-5.844290331089237e-05
-0.001616424255043032
6.32474579945317e-05
0.001611619700359018
-8.151923087708479e-05
0.001848067793776076
-0.001078688270956741
8.822247981771016e-05
-0.0007760827717606583
0.001613897929725028
-0.001080210315128281
-0.0007769377359728704
0.0001216026005779506
0.001279891924818152
-0.00105747161238859
2.931013518921244e-05
-2.585232416738066e-05
-0.001647770569453937
0.001644312758430896
3.284309692585075e-05
-0.001646538419177006
0.00164300545743733
-3.647900304436081e-05
-0.00164365714604607
0.001639925317902686
-0.001645176093010107
0.001641540186883369
-4.162480781808314e-05
0.0008920411628395117
-0.0008958207467575634
0.0008930892080029957
-0.000896737442157513
4.06928393890295e-05
-0.001086462139386146
-0.00108529678300693
4.437393580395524e-05
0.001513670898732088
8.366654751836561e-05
-7.702365267127691e-05
-0.000629424348391276
-0.0001108548202644546
-0.001511540503242704
0.001082655176688036
0.0001199742803206154
-0.0007513041775615342
0.001171070044062905
-0.0001020545929766483
0.001084033945099549
-0.0007519974556889528
0.001172834182016717
9.056132586724676e-05
-0.0006288019055791336
-7.062541707481604e-05
0.001515633372288422
-0.0006299904450562785
-0.001517422801236237
9.359072003830652e-05
-0.0007532071079065801
0.001175968797173909
-0.0006305191382634909
-0.0007526110455246376
0.001174483761849459
-4.819756576241322e-05
5.216447147504265e-05
-0.001859146322339656
7.854340030303114e-05
0.001625359398058336
-7.071193372737887e-05
0.001288290228634917
-0.001062334770931586
-0.001623872984612823
-4.084429592504273e-05
0.001619693526333091
-5.697106979263335e-05
0.001857314886787049
-0.0007790694206929161
-5.129590581011566e-05
-0.0007796820460430053
0.001286869053167386
-0.001061453947260516
-3.677454619125923e-05
0.001621289648310381
-0.00186080727266758
0.001626693588373878
-6.311151738667552e-05
0.001289515506852388
-0.001063002238909855
4.577829449755863e-05
0.001862297846611837
-4.0379725770488e-05
-0.0007807250479886656
3.281808310438668e-05
-0.001627901410916361
-2.89472823765438e-05
0.001624030610188276
-0.0007802189716301878
0.001622737125273814
-5.566346041095255e-05
0.001290685158500141
-0.001063736779799111
3.15174521854752e-06
-0.001654239760317398
0.001651095751670607
-7.736572200890683e-09
6.303444095924832e-06
-0.001653616114435084
0.001650464415551991
-9.469095082923348e-06
1.265926376705607e-05
-0.001652192943178497
0.001649002774494713
-0.001652909188834244
0.001649743537836881
8.934908467261006e-06
0.0008995335796963145
-0.0009025191958234713
0.0008990749296197908
1.194920229201454e-05
-0.0009020892234460234
-8.741249935638747e-06
-0.001093105576550241
1.168716116800276e-05
-0.001093654396810321
-5.818986066283577e-06
0.001529655587721965
-5.045836741897967e-06
1.009470194583104e-05
-0.000634690388996858
6.657068087877247e-06
-0.001530589471038613
0.001094795393442912
-0.0007597154620661181
0.001188833914073921
1.855749996789373e-08
1.335418670272051e-05
0.001094241712530193
0.001187535720865702
-0.0007588189643045164
-0.0006351721338552542
-4.513519361318868e-09
0.001528674228594415
1.516589203862577e-05
-0.0006342118390001394
-2.008403483097866e-05
-0.001527768784754008
2.68687178616325e-05
-0.0007572410404401708
0.001185119565607485
-0.0007579461806330618
0.001186236164266639
2.028064327082456e-05
-0.000633808606382297
2.909881785397084e-06
-6.042400532808993e-09
-1.50038022499038e-05
0.0008981713533571167
-0.0009012713853705251
0.0008986317265911441
-0.0009016863265567378
1.466630545350346e-05
-0.001092589315290427
0.001089610171001853
1.768455458552012e-05
-0.001092065293231897
0.001089047044096233
3.603635895385035e-05
0.001525213219388104
-3.070369358820595e-05
-0.0006328834812669193
-0.001524231116647964
-4.773963226977178e-05
0.001090868642399549
-0.0007555111558680631
0.001181692323653051
-0.0006325676160668952
0.0010915009802981
-4.067655801199766e-05
-0.0007558952879627839
0.001182544452778688
-2.07529970232816e-05
0.001087746246202632
0.001088432537848038
-2.545647428005023e-05
0.00152610162311947
-0.0006331774890821104
-0.001526932064150004
3.372925983748355e-05
-0.0007567055231603016
0.001184187730031969
-0.0006334761685843778
-0.0007562729299741049
0.001183361961666859
-2.247322312826982e-05
-0.001648860458292083
0.001645481357248823
-1.915078983935906e-05
-0.001649833237709212
0.001646510804415732
1.588493762697193e-05
-0.001651467343926021
0.001648241670059839
-0.001650690006573477
0.001647424154352655
-3.419760792812589e-05
-0.001865911326669939
0.001630781313758639
4.123224308096765e-05
0.00129355031033844
-0.001065454932580447
-0.001631567680168282
1.778564118269908e-05
0.001627956120472317
0.001866931295039682
2.480863983924549e-05
-0.0007823594633995041
0.001294496431409363
-0.001066084976135025
2.991130973210385e-05
-0.0007819669524858191
2.144312438756533e-05
0.001627123830538853
4.839041348606785e-05
-0.001864828645246963
0.001629930137853494
0.001292667634642319
-0.001064927297664923
0.001863634765095674
-3.510078298882445e-05
-0.0007811674616810945
-0.001628971641022871
-2.516295837066533e-05
0.001625187317012911
0.001291692280008087
-0.001064302202882715
-0.0007815855806688238
0.001626210303855804
-0.001547109351072487
-0.0001896349369589707
0.001533247265519246
0.0002034970225122343
0.001758430873286013
-0.001026411376916126
-0.0002644705613900591
-0.0007513396619076288
0.0002837907269275732
-0.0003642648041203
0.001210308721698174
-0.001025660115674153
0.0003909377202961554
-0.001438491860196273
0.00103782923547955
-0.0003594797637446506
-0.0007340174800570573
0.001108441601140634
0.0003857182673779148
-0.0002714649047497375
-0.0006117249419115392
0.0002912634303683472
-0.0001564159677107023
0.0001678338262585315
-7.664113895701988e-05
0.0008796728509675325
-0.0008850428262070011
0.0008816415892219454
-7.153686523549565e-05
-0.0008867458629477556
7.487355036010134e-05
-0.00107402652105022
-6.988018586863449e-05
0.00106903315655818
-0.001071910591528305
8.012553843076744e-05
0.001066658603453364
0.001491103067967668
0.0001487405526792208
-0.000139092535488989
-0.0006231850672885795
-0.0001970505093040963
-0.001487300324219628
0.00106726982493844
0.0002105613771379737
-0.0007442069336002944
0.001150726565045985
-0.0001842509310953309
0.001069670644388683
-0.0007452842369742104
0.001153917082327844
0.0001589534886779732
-0.0006221891093445273
-0.0001299793437145352
0.001494676635018928
-0.0006241169758362146
-0.00149800510645203
0.0001721902164652284
-0.0001607051268655843
-0.0007472379816272584
0.001159731477422277
-0.0001213181593588659
-0.0006250247016009562
-0.0007462503676056988
0.001156955696440897
-8.569145025632362e-05
0.001061385549623116
9.157572556048577e-05
0.001064104732550859
0.001609081586559623
-0.001838873029888985
0.000151865982865108
-0.0001412974218235958
0.001273001835375626
-0.001053778953088099
-7.898424818202868e-05
-0.001606245151153325
8.472265051140374e-05
0.00160050674882335
-0.0001101732726952378
0.001835334644692297
-0.001071258514777092
0.0001181776111896303
-0.0007720804684096379
-7.349446848328473e-05
0.001603591806846465
-0.0001025167886421387
-0.001073322715828361
-0.0007732067981292561
0.0001628738666608419
0.001270255958137495
-0.001052174348419083
0.001611702520118203
-0.0001312693017115568
-0.001842175309908069
0.001275439959175008
-0.00105499528950473
6.826880108684498e-05
-0.00161416173128983
0.001609140388192795
0.001845230152403786
9.522678513619263e-05
-0.001077032350207314
-0.0007752021075207199
0.001606476852707958
0.001277804829951264
-0.00105640310999356
-0.001075250609468775
-0.0007742147039607317
-9.279843938120541e-05
9.916147834352636e-05
-0.001611910105520942
0.001605547066558757
-8.675980073541214e-05
-0.001615704660919482
0.00160966602227041
8.107940393736914e-05
-0.001622548878635395
0.001617133410672417
-0.001619221557102195
0.001613541160297573
6.66818602996121e-05
0.0008851932016476609
-0.0008898213235264644
0.0008834827659135698
-0.0008883377708569647
-6.514328524783972e-05
-0.001075995415408416
-6.061849332645136e-05
-0.001077847507754947
-9.774829522953293e-05
0.001506721418683161
0.0001052401935861975
-0.0006274259237256162
-0.001509220489606489
0.0001295002859489119
0.001081172337131214
-0.0007505988753689165
0.00116912102220746
-0.0006281427202307925
0.001079564644419302
0.0001394136122307598
-0.0007498069901257709
0.001167050438096468
5.63044583846699e-05
0.0001130918363248642
0.001504018842358706
-0.0006266772834587885
-0.001501123935212799
-0.0001498229743222084
-0.0007481220640645481
0.001162368431316505
-0.0006258674923486226
-0.0007490119835265597
0.001164773956022704
-0.001827451882943203
-0.000174540490719537
0.001599988471063018
0.0001867423816588367
0.001264256835076382
-0.001048995314135588
-0.001603235718675313
9.078290520661687e-05
0.001597175463976026
0.0001266282168803122
0.001831522783289451
-0.0007709402324347236
0.0001355032317937144
-0.0007696682944209585
0.001267426801226922
-0.001050806360693683
9.714632202417209e-05
0.001593625054231143
-0.001823075513817291
0.00159655494752245
0.0001997500852384644
0.001260986938245641
-0.001047474075537747
-0.000144924048296181
0.001818411588037117
0.0001548660567328385
-0.000766968046855033
-0.0001039033130524077
-0.001592856743673976
0.0001110318092786982
0.001585728247447562
-0.0007683915977837913
0.001589797956479686
0.0002134134843776436
0.001257339152971687
-0.001045447707769147
0.0001142569918325618
0.0008676172075797601
-0.0008749192660840246
0.0008646859419730766
0.0001220764365624979
-0.0008725053867054088
-0.0001116544436533603
-0.001056088092869497
0.0001192879173268377
0.001048454619196148
-0.0001045111694086181
-0.00105915442629732
0.001052011152049436
-0.0001698313917885621
0.001478875605677873
0.0001814037289523884
-0.0006200837475027129
-0.001483219851847258
0.0002249840004586304
0.001064734405612638
-0.0007431688267549899
0.001147231649658101
-0.0006211727374875006
0.001062018346667571
0.0002402841791928947
-0.0007420079063692111
0.001143564986633132
9.784684334460099e-05
0.001058463287818814
0.001055354020595997
0.0001937932521311652
0.001474208876685211
-0.00061898119229125
-0.001469240015625722
-0.0002567107168615496
0.0002742300517376703
-0.00073968490826122
0.001135317496136244
0.0002070467240509569
-0.0006178075455824555
-0.0007409115867861724
0.001139539499490583
0.0001059652204711234
-0.001607910314345942
0.001601106572214956
0.0001131691053462996
-0.001603596474327986
0.001596392589450342
-0.0001209198374923608
-0.001594164388714182
0.001585915042087717
-0.001599059595451138
0.001591308863299233
0.001565206956130123
-0.001782680945567379
-0.0002971632440143639
0.000317674545294925
0.001229560040791051
-0.001032597352634665
0.0001546262916349018
-0.001570587619312573
-0.0001446297814883075
0.001560591109166192
0.0002156526314216634
0.001789669982233209
-0.001044626816835672
-0.0002017175494141452
-0.0007589782474054361
0.0001653449866388139
0.001554488261115267
0.0002306025214832982
-0.001040552240492407
-0.000757078595147419
-0.0002779222182703802
0.001235132384874005
-0.001035291047716305
0.001559562701742197
0.000340152511985597
-0.001775146077889212
0.001223676602747566
-0.001030571193298663
-0.0001770249537279084
-0.001553478454229616
0.001540868470994229
0.001767115586263226
-0.0002468824191298203
-0.001031475866832641
-0.0007532278616978985
0.001547882734642911
0.001217212796268502
-0.001027687956390101
-0.001036158406113889
-0.0007552675694327544
-0.0001304960224535023
0.0008581826641601476
-0.0008672530635435096
0.0008615420933727629
-0.0008699616792674569
0.000127522124988708
-0.00105286102450419
0.0001363763383171666
-0.001049406453825146
0.0002533776737801483
0.001452079251784123
-0.0002366993334975467
-0.0006141843630341798
-0.001445544503124894
-0.0003355857133834585
0.001041895605411681
-0.0007349834899540327
0.001114738337296823
-0.0006129163908320794
0.001045778296948969
-0.0003134745193877629
-0.0007362088801657098
0.001120398640992967
-0.0001459962291446207
-0.0002213276149202093
0.001458207384568021
-0.0006153964389933708
-0.001463898506462103
0.0002931615095906006
-0.0007385622957170904
0.001130668319817945
-0.0006166373039693167
-0.0007373038382038194
0.001125791759134404
-0.001802335183779897
0.001580339863488322
0.0002602236974699982
-0.0002435313385353774
0.001245011321124363
-0.001039708359767897
-0.0001353869406709003
-0.001575584487840553
0.001566341647020227
-0.0001888259526863994
0.001796233995313488
-0.0007606709728544185
-0.0001767367663832255
-0.0007624132180475584
-0.0001267154569980244
0.001571668379806375
0.001240184089662881
-0.001037233103006176
-0.0002280682654243947
-0.001808067288973433
0.001584758505195939
0.001249371192009459
-0.001041525481349827
0.001813401441982564
0.0001654796129266852
-0.0007655517103639482
-0.001588956335502224
0.0001186444247576173
0.001581343720018315
0.001253565145941064
-0.001043774820524528
-0.0007639704218456298
0.001576687472945133
0.001278108473611282
5.368133298992357e-06
0.001242020114154702
-0.001225909964740365
4.126746180908105e-09
5.811558672071664e-06
-9.884278493507825e-11
0.00124101236401349
0.001277156217445949
1.081275106384779e-05
-0.00122543288940305
5.1767303429622e-06
-0.001259398988306525
0.00118197520819479
-4.198908555056976e-08
-0.001313635890283645
-0.001248102723769293
9.920036208958315e-06
0.001171073811744618
0.001385702990463008
1.039668962412644e-05
-0.001258939726190286
0.001181096240619863
1.164470172354603e-05
0.001239931777795821
0.001276152973987189
1.62079183157243e-05
-0.001224710603891472
-1.750048685765464e-05
-0.001275292076843532
2.340395865613791e-05
-0.00131286321664457
-0.001246956297464239
0.001384859332207191
0.001169951293224523
-1.553663091137973e-05
-0.001238914233685925
2.080704221995923e-05
-0.001257617341388418
0.001179121291220197
-0.001258185731924145
0.001180114351766493
2.172952709455682e-05
-0.001224210652813109
0.001265045831652317
0.001225492451591154
8.939069547463654e-05
-8.242113791046446e-05
-0.001215596398475665
-8.546705944178986e-05
-0.001223648080791714
9.250724627759168e-05
-0.001247705164141178
0.001163534937173213
-0.001233080411261225
-0.001302062151208767
-7.546140502230167e-05
0.00137285105669436
0.001155490492966333
-9.650692947430872e-05
-0.001263661783325564
0.0001044275948605131
-8.884310451037586e-05
-7.873035471356127e-05
-0.001247730598321008
0.001164424193956186
9.68631595847602e-05
-0.001214890403429228
0.001266451035489669
0.001227385597011397
-7.54873919153657e-05
-0.001217089276988806
8.148882548182404e-05
-0.001267631505682211
-7.434467939101841e-05
-0.001234929260899706
-0.001303487011146414
0.00137422338483992
0.001158199215927969
7.218357758829387e-05
-0.001228944189521175
-6.590346003049324e-05
-0.001249927960480262
0.001168003771921704
-0.001249878235341355
0.001167230044058586
-6.898051545917189e-05
-0.001217696011130236
0.001233142272229873
0.001270807933279287
-5.021328695846661e-05
5.635088028256916e-05
-0.00122057229198546
4.802584691647548e-05
-0.001234220569035668
-4.240245376119685e-05
-0.001253557429186127
0.001173621857920853
-0.001307749172744731
-0.001240478069524593
5.15911899598823e-05
0.001379160227542946
0.001163683967762566
5.419612557569144e-05
-0.001271630083962297
-4.780073250557808e-05
5.384666860193495e-05
-0.001253404332850129
0.001172976610632318
6.072469540686629e-05
-4.436401150328345e-05
-0.00122101476997227
0.001231832208887115
6.248798894578784e-05
0.001269814648638474
-0.001219493737568185
-0.001268822783360079
-6.745001363221822e-05
-5.975967299739189e-05
-0.001230530140479859
-0.001251766114973153
0.001170351769755959
-0.001306733218833621
-0.001239202885697221
0.001378190206213168
0.001161832620933766
-0.001251853161403357
0.001171039147045678
-0.001218976397199301
0.001236201334569905
3.850339180975164e-05
0.001273139642614028
-3.286942681934893e-05
-0.00122230730753763
-3.683232226988092e-05
-0.001235293517348302
-0.001254855391701857
0.001175201597741031
-0.001310048824088274
-0.001243371808131735
-3.009656826280313e-05
0.001381875796980976
0.001166208146296724
-0.001272449955530438
-4.155476436832192e-05
-3.143139724499943e-05
-0.001255125589935126
0.001175877175376743
-0.001221911812577494
-3.540986375728552e-05
-2.721323819051027e-05
0.001237115739447843
0.001273849661243097
-0.001223071278993827
-0.001274516136672111
2.937052632285831e-05
-0.001237978098484471
2.604480814899156e-05
-0.001256664873649867
0.001177987649762114
-0.001310775789366822
-0.00124424414775428
0.001382561920752119
0.00116740952639948
-0.001223481514857883
-0.001256223122540128
0.001177176483507951
0.001215125203262804
-0.0003101472623592355
0.001146557755589735
-0.001181581043531956
-0.001202759489272396
0.0003328048363109694
-0.001153699589158569
0.0002955361967634173
-0.0002751066878937179
-0.001215357510283032
0.001089785410660069
0.0003358076573407883
-0.001218991822515164
-0.0003128659296788428
-0.001157879262581274
-0.001255696828817402
0.001314534862870713
0.00030494614919244
0.001079616317099133
-0.001525145524555779
0.001557655255987573
0.0003605438665782004
-0.0002891340823840358
-0.001183395869968664
-0.001216460006271079
0.000316289005549592
0.001086568124242758
0.001260426737961308
0.00121925426027953
-0.0001044032530585332
0.000112528139700203
-0.001212365925711268
9.980539948453102e-05
-0.001221415284755038
-0.001245231550834894
0.00116022085417288
-0.001227079148161177
-0.001297648958663978
0.0001030299586917588
0.001367380305763866
0.00115039619726691
0.0001127280809362126
-0.001262028720680196
0.0001213403114028401
0.000107443860977291
-0.001245226646861348
0.001159193486965747
-0.001213179268975196
0.001258552197500193
0.001216644820312951
0.0001207676331654096
-0.00121043467591654
-0.0001304166735435496
-0.001256717296799394
0.000139870749810799
-0.001224535769670475
-0.001295761279338416
0.001365545658379976
0.001146641652397386
-0.0001154289095390485
-0.001214131651082805
0.0001237901096162477
-0.001242432101328379
0.001154126406983414
-0.001242414268440661
0.001155312760837895
0.0001296809434766862
-0.001209506300070806
0.001204685870600459
0.001250103353275124
0.0001587908404004372
-0.0001486439923105066
-0.001203949133725768
-0.0001517027572253161
-0.001201328993110967
0.0001619950240879628
-0.001235896332688738
0.001141421995794655
-0.001287641295723724
-0.001213021374304148
-0.0001361101093056218
0.001355980745282047
0.001134651468717858
-0.000171547041797932
-0.001247752561107307
0.0001832811539527749
-0.0001418491689947809
-0.001235805091088537
0.001142996077717906
-0.0001603717672862857
0.0001698164906977828
-0.001202768051560726
0.001208192821240037
-0.00013877682146024
0.001252503226383076
-0.001206306383408406
-0.001254587275958292
0.0001498920570154223
0.0001326148262841658
-0.001211101077901506
-0.001239271378880717
0.001149608086671327
-0.001290037137705838
-0.001216427013225048
0.001358340284727798
0.001139730345132607
-0.001239319272305984
0.001148240613113304
-0.001207357430630107
0.001226400348324144
0.001167241612155198
0.0002700281606652566
-0.0002523712486526406
-0.001187622269748717
-0.0002575160906868685
-0.001161176705158092
-0.001220123047988534
0.001101263334544501
-0.00117729242593612
-0.001265476235164652
-0.0002311714644548713
0.001328664198183701
0.001096708298329661
-0.0002921700436368829
-0.001222825672546922
-0.000272841876951095
-0.0002403404084852434
-0.001219451053716366
0.001104040748492813
-0.001185895503166935
0.00122997630514434
0.001173595588579845
-0.0002360148345940372
-0.001190368267001977
0.0002552331973113064
-0.001233232072986582
-0.0002386930619663122
-0.001183379707494958
-0.001268910903678748
0.001332249011769489
0.001106112838033693
0.0002252172121967544
-0.00117879088926605
-0.0002105516221917873
-0.001223746561088383
0.001116127464737064
-0.001224161658839844
0.001113723147438656
-0.0002209380247734521
-0.001191967387212423
0.001193402101313672
-0.0001812595328503314
0.001242432647261344
0.0001937003863305222
-0.001198904410048607
0.0001731157185277273
-0.001197275608363663
-0.001232031026685544
0.001135338422082845
-0.001280481519629248
-0.001202245541480964
0.0001773921553815187
0.001346759526534279
0.00112540109831129
-0.00124506872353391
0.0001958733039269215
0.0001846964783729764
-0.001232187370706276
0.001133527192533654
-0.001200222228121236
0.0002091514083099775
0.001188712194177203
0.001239452846164498
0.00020675397932431
-0.001196207312222039
-0.0002234970806717418
-0.001236513711897242
-0.001277546979487808
-0.001197715958146368
0.001343807817067334
0.001118548669257752
-0.0001973896109160859
-0.001184234715511646
-0.001228243271951332
0.001124373261633113
-0.001227986565039321
0.00112645864717309
-0.001194748383204539
-0.0003494218348505549
0.0004168359207056571
4.343307544316406e-05
-0.0001484577280232988
3.761056672596596e-05
-7.470907183681423e-07
-1.459082389203347e-05
3.018177034424628e-05
1.086854618142492e-06
-1.593071035153312e-05
1.458850694340529e-05
7.47034327197919e-07
-2.10635099245488e-07
-1.512490617165747e-05
-4.054416293960825e-07
3.018032151603512e-05
-1.593346366803954e-05
1.283981178390127e-06
-1.512777075011497e-05
1.437002723396478e-05
-1.503166740138318e-05
4.510050643392722e-07
2.925681807388848e-05
-1.552497973272742e-05
2.327472589718043e-07
-7.131392495134367e-05
-7.094191990532673e-05
-2.600152068411188e-05
-1.274540120736661e-05
-1.120658201493744e-05
-2.437024189537971e-05
-0.0001328422442009868
0.0005796313332212793
1.145839434892153e-05
-0.0001801608192823989
5.90701241083077e-06
-0.001065625027216916
0.0007329125698335817
7.641451844200895e-06
0.0008253597355772889
-0.0005004051306588138
1.164006195557818e-07
0.0007060892528274969
0.0009554343216327659
5.736473965962887e-06
-0.0009136269864263498
-0.0007536518483191886
1.878631925652082e-08
-0.0007459231511444605
6.783938857737459e-06
-0.0003268612199506085
3.75405010552468e-07
7.396705410208533e-06
-0.0001753383484638894
1.649825118116017e-06
0.0007297725484937802
3.132700490303949e-06
7.320835923837511e-09
0.001258572060020127
5.26868487213315e-06
-0.0005340782681917374
1.007179077964854e-08
-0.001131544106971754
-0.001171397497679804
-0.001170158382904257
-0.001130882733366573
4.333387758641626e-05
0.004310905860227622
-0.004719916439580098
-2.214597294279941e-08
-0.001079327070177835
0.00113872112156483
0.0008554775492094374
5.516496742522405e-06
-0.0009204059706597754
1.787332153292096e-08
-0.001046075411752413
-0.0007985853291665399
5.604126589634861e-06
1.408206952944892e-08
0.0009807737593728202
6.874029045907844e-06
-0.00063253461105868
2.787272431212932e-08
5.602980498594397e-06
1.248607213072416e-08
5.015881049760583e-05
-7.735638003962395e-07