/*--------------------------------*- C++ -*----------------------------------*\
  =========                 |
  \\      /  F ield         | OpenFOAM: The Open Source CFD Toolbox
   \\    /   O peration     | Website:  https://openfoam.org
    \\  /    A nd           | Version:  7
     \\/     M anipulation  |
\*---------------------------------------------------------------------------*/
FoamFile
{
    version     2.0;
    format      ascii;
    class       volVectorField;
    location    "0";
    object      U;
}
// * * * * * * * * * * * * * * * * * * * * * * * * * * * * * * * * * * * * * //

dimensions      [0 1 -1 0 0 0 0];

internalField   nonuniform List<vector> 
12692
(
(0.7398183581956799 0.001446984868193006 0.7762263752613363)
(0.7394810203268137 0.01012151847465281 0.7759473582042905)
(0.7333754766353678 0.04971996955270219 0.7674659458311539)
(0.7356942155654479 0.03857641431268016 0.7704573874338317)
(0.7379204789198369 0.02525356766617717 0.7736908771206541)
(0.7363165952964429 0.03509186882637923 0.771664267189171)
(0.7383266590063338 0.02211424049482816 0.7744552625895947)
(0.7392734782206263 0.01307049086003813 0.7756081342006654)
(0.7081554141895795 0.1600721672374485 0.7231998069570574)
(0.7325178029596788 0.05374313978873755 0.7657495723850666)
(0.7294065728753657 0.06686175007857478 0.7616196437621567)
(0.7242878781268406 0.08773661599548226 0.7537429626485054)
(0.7282902785642908 0.07168777500647786 0.7592827899506275)
(0.7101090157284565 0.1493277753002407 0.7290413950723581)
(0.7161876121311026 0.1220442535671262 0.7390022290777801)
(0.7228882239793238 0.09375713425133042 0.7506092585329414)
(0.7178843429476247 0.1142046868236375 0.7432256689926126)
(0.3056380871245912 0.03332896406111385 0.6849573256037479)
(0.3058612846594344 0.02958783919909727 0.6854879222743782)
(0.3041574111785186 0.05374175190386692 0.6813909300388664)
(0.3037716572777386 0.05827295974492745 0.6804617271623339)
(0.3066982276778574 0.005058960656292118 0.6874853901839886)
(0.3067217881858268 0.001687697015352985 0.6875405579309655)
(0.3062307504026729 0.02232129474964662 0.6863660775269884)
(0.3060595795357235 0.02592159568832215 0.6859590387690851)
(0.2911465119975895 0.1882370456045947 0.6489667661597812)
(0.3001025999305653 0.0962783048289301 0.6715552580839707)
(0.299430211849244 0.1029189365257642 0.6699054762042463)
(0.3028988004583458 0.06789738792908941 0.6783568339886746)
(0.3033521137760149 0.06298591320261072 0.6794496869758269)
(0.2979576722959841 0.11748360513389 0.6662654829658126)
(0.2987178086965079 0.1099726593695585 0.668144759626353)
(0.2933842093866094 0.1639346475571961 0.6547526645806362)
(0.2922939664586395 0.1755639886909471 0.651957278010133)
(0.6787669066337845 0.05011745767672292 0.8599002791841198)
(0.6796777734973112 0.04622937372303446 0.8610934214067598)
(0.681282175330324 0.03886622525781983 0.8632011459322688)
(0.6805125627614994 0.04248314723608404 0.8621941816338631)
(0.5962950332842929 0.007698334433649727 0.7764929250930059)
(0.5866468184726656 0.01065357354015424 0.8414017392576056)
(0.5150793180961262 0.01106751896733215 0.7946346374227424)
(0.5867824692532567 0.007591715383259298 0.8416039980692034)
(0.5151946858267744 0.007884922305325849 0.7948249617211953)
(0.5961607064729746 0.01081319758085401 0.7763048982461609)
(0.5963854742899145 0.004604512933322022 0.7765994029058914)
(0.5869098170073643 0.001519551791045203 0.841794059871883)
(0.5153090315301582 0.001575228437013878 0.7949974719723667)
(0.5868698540469131 0.004549604094386961 0.8417340280849399)
(0.5152715568879644 0.004723511989464 0.794944884691727)
(0.5964334191036903 0.001527631395815005 0.7766396300251119)
(0.64830752298108 0.161911898889632 0.8191664580625595)
(0.6777866141107718 0.05416404059324838 0.8586055676588606)
(0.6767235227715513 0.05838394008933601 0.8572110646392135)
(0.6743574230678374 0.06742123173482262 0.8540913075348286)
(0.6755859102475334 0.06279704803762144 0.8557055857273675)
(0.6511649336422566 0.1510098687671799 0.8230867287623905)
(0.6538694407541549 0.1410070674647052 0.8267262501693435)
(0.6587529019806384 0.1232501220649922 0.8333103224855639)
(0.656378665808101 0.1317815404029637 0.8301362971611972)
(0.305392544592518 0.03715994766383601 0.6843694748122918)
(0.3051248912992994 0.04109997476150872 0.6837256998574543)
(0.4387574351858374 0.03918436504002085 0.7756307759224272)
(0.4391575682279772 0.0354207701971522 0.7763710932210874)
(0.3779438853428155 0.03275832944320295 0.7089212285474311)
(0.4528130548190316 0.02852339286601828 0.7063340209078705)
(0.4525282382687577 0.03213668178583428 0.705754340310594)
(0.3781955780043516 0.0290772228395325 0.7094775286898946)
(0.377665930282532 0.03653040197826232 0.7083004965988018)
(0.4518690313939842 0.0396475875897598 0.7043802960897132)
(0.3773578443064693 0.04040858926862669 0.707617384867304)
(0.4522192533443467 0.03584051143340378 0.705098165216322)
(0.439840989029594 0.02818788339908666 0.7776364806672176)
(0.4395177316833251 0.03175934346204412 0.7770397982466885)
(0.5924603929888645 0.04507691625822308 0.7702177401087523)
(0.5831782168489377 0.04059387106581162 0.8362173103951972)
(0.5122348014970914 0.04218002918788892 0.7896785656963672)
(0.5825253604724098 0.04437177343307674 0.8352433860583506)
(0.5116987443377324 0.04610592842882343 0.7887477194519944)
(0.5930641797709502 0.0412398059355216 0.7711899450175648)
(0.591864678418807 0.04905178483608205 0.7691610892988855)
(0.581045415709703 0.0523460816361718 0.8330246796681507)
(0.5104946027176209 0.05439318486630101 0.7866238182953552)
(0.5818180366598567 0.04828471111070076 0.8341788685758722)
(0.5111276129673368 0.05017223338391362 0.7877284189954087)
(0.5911535613549348 0.053176522132908 0.7680057983710022)
(0.6837027170134427 0.02543675420538532 0.8663760881320912)
(0.683190276450744 0.02866067806254799 0.8657067678029473)
(0.6819813168735631 0.03536436386484559 0.8641218037675817)
(0.6826187440842499 0.03196667487307345 0.864955025454989)
(0.3045104493299628 0.04937766579683699 0.6822428672029496)
(0.3048322070674144 0.04516780802032657 0.6830186466195139)
(0.4383184424123548 0.04306404653236609 0.774813836693382)
(0.437836049412536 0.04707288529236967 0.7739198592929017)
(0.3762522501871511 0.05283020510451703 0.7051353532270116)
(0.4501387357942918 0.05619255779289906 0.7007127013629874)
(0.4506324557324107 0.05183071393377198 0.7017479542229109)
(0.3758146760507387 0.05727965549931499 0.704151629448625)
(0.3766524921591167 0.04854451819324509 0.7060399763454382)
(0.4514952256037296 0.0435726215783542 0.7035789455511381)
(0.3770221695315176 0.04440860700001911 0.7068643430810534)
(0.451075692292755 0.04762867667945435 0.7027105600332785)
(0.4367398318412475 0.05553655007475186 0.7718816012846467)
(0.4373115680083036 0.05122563836559673 0.7729424403595622)
(0.5940686436224236 0.03392000225540247 0.7728737699661227)
(0.5837706620405314 0.03693646523028289 0.8371075320533219)
(0.5127144805146379 0.03838001429360657 0.790530207039405)
(0.513159740502148 0.03469310634006163 0.7913003397832973)
(0.5935663436566784 0.03752437828639667 0.7720708156554944)
(0.5843115760638757 0.03338783539974819 0.8379134705409922)
(0.5944817433222442 0.03041230063617982 0.7735914753848139)
(0.5139126877848725 0.02760756587702342 0.7926155851620069)
(0.5852312093593638 0.02656792238141632 0.8392880287251316)
(0.5135533947218002 0.0311061695781548 0.7919962157454159)
(0.5847961099175544 0.02993513040081817 0.838640471330966)
(0.5948873090078707 0.02699179081366089 0.7742356934214181)
(0.6856908211796608 0.001455283219815935 0.8689794986312988)
(0.6856411549782202 0.004356633411608094 0.8689141836493502)
(0.6853737747852235 0.01020101087231444 0.8685648597241725)
(0.6855355635014415 0.007269521053229949 0.868776389875873)
(0.3066516474456663 0.008441714835521939 0.6873750900473319)
(0.3065836083872304 0.0118481814601878 0.6872112087013472)
(0.440895735731659 0.01129995897087937 0.779586841031739)
(0.4409978702530196 0.008051716589674632 0.7797756713128403)
(0.3791614258782365 0.004969220689249521 0.7115649004633995)
(0.4539707138760911 0.00161094321034167 0.7085288831778868)
(0.4539255361734089 0.004861397006820615 0.7084902894332953)
(0.3791923900430796 0.001655114987485656 0.7116140057219917)
(0.3791038453518632 0.008297141076955337 0.7114562506350121)
(0.4537492361200854 0.01142167023458044 0.70821939574878)
(0.4538503074802921 0.008129682715024842 0.7083888375102729)
(0.3790210716337867 0.01164839798424229 0.711286756225345)
(0.4410981530690258 0.00161110737909571 0.7799604412229288)
(0.4410652536277737 0.004825080495794315 0.779899824185641)
(0.3063748463276556 0.01878005578376258 0.6867099513698451)
(0.306492056823673 0.01529133803149503 0.6869906433671339)
(0.4407582328753126 0.01457979784688819 0.7793321665653699)
(0.4405841977102707 0.01789935787579391 0.7790109726692294)
(0.3786114920062085 0.02193769439652307 0.7103974394133328)
(0.4530593489948741 0.02498768428951122 0.7068517559052679)
(0.3784174129992235 0.02547374477950817 0.7099708787913525)
(0.453279723652233 0.02151947673184161 0.707294866633049)
(0.4401257480967955 0.02469411878374328 0.7781640288168978)
(0.4403738716937413 0.02126800064054123 0.7786215180669105)
(0.378775728455703 0.0184601685461493 0.7107590563379624)
(0.4536221949843217 0.01474549958666711 0.7079798587804219)
(0.3789123141076913 0.01503319861854831 0.7110546995069577)
(0.4534642837255654 0.01810821460854227 0.7076736504649415)
(0.6841528385157849 0.02228374488907611 0.8669675170920612)
(0.6845456055947094 0.01919306052414637 0.8674802505275477)
(0.6851551853932187 0.01316034735780206 0.8682783931140168)
(0.6848787025047346 0.01615449069545481 0.8679174530131506)
(0.5957723805834551 0.01713828535265475 0.7757030056011668)
(0.5864626253875423 0.01374466197456533 0.8411264212978651)
(0.5149261955436265 0.01428038341365966 0.7943732040938215)
(0.5959942186836408 0.01395814094806972 0.7760443517629334)
(0.5147312818222436 0.01753152584417792 0.794041356415616)
(0.5862285236562524 0.01687235407601112 0.8407781882779211)
(0.5955271822639825 0.02036499219519956 0.7752905488497265)
(0.5142239696748648 0.02418565556476935 0.7931634141045568)
(0.5856129304542573 0.02327473258663429 0.8398599992877369)
(0.5952149094904685 0.0236454625340502 0.7747987533817503)
(0.5145001199417882 0.02083036001419875 0.7936375821536027)
(0.5859463630695994 0.02004633258801041 0.8403558818802018)
(0.5553437036425544 0.169102631039898 0.7936582587101441)
(0.4904068387760179 0.1756812405284951 0.7486974049679346)
(0.5702665279679722 0.1716186415809789 0.727426019904917)
(0.4356262144679092 0.1813974943132851 0.6641315314175)
(0.3622264842348437 0.1850026327207264 0.6704520371235784)
(0.4178171842238149 0.1794215833016871 0.7358395953364533)
(0.3007366109951597 0.09000514770262656 0.6731068141531266)
(0.3013339542747294 0.0840595442840619 0.6745593874805781)
(0.4331465589134513 0.08010130848604408 0.7651696908442632)
(0.4322640750689574 0.08577083641793375 0.7635194892420504)
(0.3717345193346039 0.09463332734097912 0.6947107795794727)
(0.4448208858540624 0.09923167745858999 0.6887919556342459)
(0.4456449734458048 0.09282614782343128 0.6906645053907756)
(0.3709900362892656 0.1011640476119776 0.6929544286118947)
(0.372431305893725 0.08846348834184714 0.6963607557889969)
(0.4471343825630419 0.08104057852885531 0.6940705472592732)
(0.3730938930634071 0.08261841052704369 0.6978997032845262)
(0.4463975567917553 0.0867733965401178 0.6924396028222726)
(0.4303213650961137 0.09809343139313575 0.7598644761921215)
(0.4313257413448092 0.09175722141985765 0.7617507537691306)
(0.5888364626809096 0.0666268977903372 0.7639456873536528)
(0.5773083535741345 0.07042002916067004 0.8274050993077229)
(0.5074697083176245 0.07317454308183714 0.7812343837559932)
(0.5783496060031524 0.06559007677325304 0.8289667211838438)
(0.5083169422097364 0.06815587691990986 0.7827321607684393)
(0.5878906358645011 0.07153062010599455 0.7623722156774547)
(0.5896344233721782 0.06194577608951257 0.7654032079935126)
(0.5802148120998595 0.05657280966907858 0.8317722859260185)
(0.509825961260325 0.05878562756232105 0.7854229450099464)
(0.5793132592785081 0.06098071617825095 0.8304231507477932)
(0.5904593280973858 0.05746972384229197 0.7667578678845819)
(0.5090894528541605 0.06336638225712966 0.7841301200921205)
(0.668530351395855 0.0885204935506113 0.8463788750793443)
(0.6701407220906583 0.08280159971067746 0.8485051596326809)
(0.673048294885277 0.07228073157799268 0.8523546105441842)
(0.6716385119057909 0.07739749487513427 0.8504981046139809)
(0.302412925330162 0.07303011128719218 0.6771797024482048)
(0.301892111290963 0.07840930060877126 0.6759171111003253)
(0.4339689579124189 0.07471691630084408 0.7667135195618059)
(0.434739654106497 0.06959183366073873 0.7681499316147226)
(0.3748359664336018 0.06673511884424331 0.7019253310145309)
(0.449622153658089 0.0607313608110685 0.6995730807905475)
(0.3753450504076681 0.06190881754280398 0.7030804161649991)
(0.4490506529194181 0.06546384689372907 0.6983565925672905)
(0.4361230102379977 0.06002256179080158 0.7707302515725443)
(0.4354553185451477 0.06470073343352452 0.7694891091521716)
(0.3742945707810729 0.07177988827449798 0.7006776339421507)
(0.4478057633689073 0.07559502663847162 0.695612271674567)
(0.3737112446788622 0.07706594108279015 0.6993400267359153)
(0.4484581147677471 0.07041143361487523 0.6970254929197749)
(0.5859085935877083 0.08210861068011023 0.7588663696818976)
(0.5762000438758308 0.07549532274236496 0.8257251252891961)
(0.5065860531557087 0.07844742979724258 0.7796206285280377)
(0.5056196409388894 0.08399961370132791 0.7778974098723677)
(0.5869833659205088 0.07668396739584908 0.7606826548345279)
(0.5750061791057074 0.08083950613371858 0.8239297092545931)
(0.5848861411318955 0.08783803861449216 0.7569167513730916)
(0.5035211787074321 0.09606736302684044 0.7740711105196488)
(0.5723771469661367 0.09245628834917412 0.8199469535547571)
(0.5046165360524549 0.08986241975261323 0.7760449853030335)
(0.5737392569905861 0.08648333182682828 0.8220023385667966)
(0.5836734961402095 0.0938995127819358 0.7548275977611971)
(0.2971496154859373 0.1255000020803967 0.6642543742567609)
(0.2962898565695197 0.1340784717873979 0.6621100860587137)
(0.4256140314928031 0.1277946500428944 0.7509340125619492)
(0.4269066080764969 0.1196180269502143 0.7533889879832136)
(0.3693765843628798 0.1154782362970831 0.6890669607608567)
(0.4439850471696025 0.1060317029335396 0.686753469955111)
(0.3702100156398573 0.1080978690384979 0.691072670058924)
(0.4430698139683097 0.1132670646978393 0.6846032508572153)
(0.4292555156556797 0.1048197310238527 0.7578450645751407)
(0.4281154001355512 0.1119776062971234 0.7556929707109512)
(0.3685053914611601 0.1233556522084493 0.6869148539859098)
(0.4411394759666502 0.1292530018547267 0.6797841773512173)
(0.3675763166160849 0.1317859082524891 0.6846213863667312)
(0.4421483938914282 0.120989955821937 0.6822578990790441)
(0.6668231094813097 0.09459216651233877 0.8440988638185747)
(0.6649886873158004 0.1010515634302772 0.841668838827935)
(0.6609598605673777 0.1153256416063645 0.8362879380377034)
(0.6630468141886283 0.1079475850262657 0.8390636916710681)
(0.5752962013516159 0.139729585875263 0.7386556483422774)
(0.5641258102415421 0.1287265625616732 0.8073182005226439)
(0.497063602479295 0.1337441780216204 0.7619117792324309)
(0.5621268828017909 0.1376367753842994 0.8042539182940902)
(0.4955044186756851 0.1429996851715462 0.7589550773587768)
(0.5769808293786826 0.1306966280916598 0.7418422409569091)
(0.5737676652993551 0.1494973163618098 0.735184304558042)
(0.5577434095268947 0.1577178156282568 0.7974464137446723)
(0.4921716806391905 0.1638571543506332 0.7523708985010276)
(0.5600152501548163 0.1472707464228033 0.8009585866015762)
(0.5719116843680174 0.1600823469899663 0.7314876615531759)
(0.493914115212517 0.1530058693910248 0.7557689013610013)
(0.2944105342466989 0.1532122689969632 0.6573717564969563)
(0.2953801259444025 0.1432902762478325 0.6598187483724282)
(0.4242448488714855 0.1365747729193057 0.7483045066657021)
(0.4227806063577038 0.1460302330897455 0.7455014479369472)
(0.3645159035272174 0.1611221993319289 0.6767115018143885)
(0.4367660297066335 0.1691991248478974 0.6677831006911771)
(0.3633856668827337 0.1725505407160025 0.6736980033486495)
(0.4379507613251684 0.1580030869385209 0.6710933007253064)
(0.4195720713768694 0.1673399108650425 0.7392873996355287)
(0.4212305047434907 0.1562521808728587 0.7424953354121222)
(0.3655807546810014 0.1505858979980246 0.6795343269713744)
(0.4401340479695597 0.1381254181569185 0.6770798413383126)
(0.3666099019369894 0.1408376716944093 0.6821600286351376)
(0.4390329164512439 0.1476776328201355 0.6742254524354316)
(0.5798992007354712 0.1144872152912706 0.7475937507321556)
(0.5659860101347522 0.120451049673736 0.8101958761850107)
(0.4984892778701773 0.1251483097635818 0.7646878282210506)
(0.4998797507792596 0.1171434728445878 0.7672691041568406)
(0.5677461985384645 0.1127453016702647 0.812876695018682)
(0.5783810538906213 0.122302509773193 0.7448320999983764)
(0.5811694887581431 0.1071797747534186 0.7501814590448439)
(0.5023888765316017 0.1026541481897205 0.7719510734316459)
(0.5709346111469179 0.09879721074413884 0.8177426435469051)
(0.5825298716360765 0.1003352075889183 0.7525821173280994)
(0.5011527078621043 0.109662569860556 0.7696939762940401)
(0.5693850888618842 0.1055435787805969 0.8153947515581613)
(0.6709246038608957 0.001488611036139798 0.7638252777082304)
(0.6836685886765838 0.001475422590883177 0.8176410122773987)
(0.6708860145783059 0.004493269711226665 0.7638111178651196)
(0.7051572127469974 0.001482941204975041 0.7439968431514751)
(0.7397582616751485 0.004318866094027001 0.7762030260519706)
(0.7051178924701221 0.004406053316734568 0.7439907261409056)
(0.683620180582763 0.00443193431237783 0.8175996739855653)
(0.6707496141538234 0.007508753488503397 0.7637257736992975)
(0.683366734613244 0.01039305710162507 0.8172940832677245)
(0.739644498351737 0.007221661328190577 0.7760784596115218)
(0.7048852362472665 0.01029774898179341 0.7437701781213226)
(0.7049772720397579 0.007352673499852552 0.7438778504484831)
(0.6835148470734171 0.007403095209487746 0.8174825306851621)
(0.6706443157504727 0.01054821999974788 0.7635580859894036)
(0.6661601505421922 0.04781940888130641 0.7562751945944659)
(0.6998384944641991 0.05051078315682458 0.7354328498031465)
(0.7342304919056517 0.04587794115694958 0.7683025346620345)
(0.6773704207015773 0.05108307706788914 0.8087038516809839)
(0.678182995957025 0.04712125072221406 0.8098593936332688)
(0.7002960334259626 0.0466080510950299 0.7361968872200589)
(0.6656011093574228 0.05183921342759116 0.7551221001561215)
(0.6669094286901052 0.04394954189474618 0.7573845051809823)
(0.6796333585303366 0.03961701435692958 0.8119667474367865)
(0.7349678387355658 0.04215170974518976 0.7697532485311395)
(0.7015432775484082 0.03919589945537914 0.7383336061674188)
(0.678944616351329 0.0433027799322878 0.8109935156806944)
(0.7011527004513886 0.04282900958266594 0.7376920539377846)
(0.6673845544969584 0.0402083488910898 0.7583539420086068)
(0.6689421386413351 0.02965708923260786 0.7608279183639732)
(0.7034585846234247 0.02566465515687972 0.7415368185594617)
(0.7374330004037283 0.02844167856604812 0.7732253271951793)
(0.6818321965555771 0.02592905582543018 0.8151323198215815)
(0.7031952975839264 0.02890577717078454 0.7411144520150268)
(0.6813714232617083 0.02921476010279464 0.8144877090362989)
(0.6692610035392568 0.02632003272314919 0.7614678982934553)
(0.6684159208707997 0.03307414571809764 0.7600770286471893)
(0.6802739287627684 0.03604743064715114 0.8129129560633357)
(0.7022696746303561 0.03566045519274494 0.7395769762349772)
(0.7369208241758887 0.0317324206474066 0.7722454770765562)
(0.7025956132753426 0.03224574792816414 0.7401054370121355)
(0.6680206027136132 0.03658984953632682 0.7592774740775102)
(0.6808458543461463 0.03258490240921072 0.8137168770705777)
(0.6699260320509255 0.01985949434414284 0.7625412978046195)
(0.7039349553124212 0.02247765622628921 0.7423232041681646)
(0.7387018857006928 0.01905781142495482 0.7748098426991177)
(0.6822476224999343 0.02271447177699923 0.8157368070580602)
(0.70413749113595 0.01937056360802939 0.7426434678089227)
(0.6696810062560179 0.02305991061717704 0.7620550257778386)
(0.6826014997217357 0.01956405713574961 0.8162287396406326)
(0.6702448765141171 0.01671565841071241 0.762967648846761)
(0.6831606012367781 0.01341229960837586 0.817013291062197)
(0.7046395535840966 0.01329006774654469 0.743428365149186)
(0.7390062490106374 0.01603145553859232 0.7753636424595514)
(0.670418466990627 0.01361325717239962 0.7632991343394803)
(0.704494773612643 0.01629848092341551 0.7432112086524203)
(0.6829106482109679 0.01646532426823734 0.8166717807805662)
(0.6442201331496054 0.1789111609618944 0.708375652239941)
(0.6800500612871478 0.1619244134222238 0.6909960702014906)
(0.6512792441760629 0.1648999358024231 0.7668100794012622)
(0.7057390404767455 0.1717081598801423 0.7200382295724392)
(0.6487961069889587 0.1770140361741983 0.7625312628508192)
(0.6457636761964844 0.1667702691020488 0.7128325904248416)
(0.679008364496645 0.1735836801921378 0.6879341557497467)
(0.6640877359770444 0.06037793299899687 0.752456644202376)
(0.698847934840057 0.05458887297876861 0.7336631478716625)
(0.7315265711354021 0.05791130314181754 0.7647687226122458)
(0.6764806232319409 0.05520735501945141 0.8073660470837491)
(0.675535946067047 0.05950683787821057 0.8060122856443896)
(0.6983208530201419 0.05882089440017964 0.7327648740980734)
(0.6647354282259825 0.05601772858222084 0.7538102984572913)
(0.6631030307826934 0.06493266340010224 0.7509218456899607)
(0.6734234058717614 0.06871489885762223 0.8028801820800983)
(0.7305427079940905 0.06229662259784305 0.7627592792614054)
(0.6965937971908776 0.06789569615625689 0.729644992918829)
(0.6745098180354856 0.06400415478558001 0.8044515325825389)
(0.6971930984072305 0.06326337888436438 0.730692078466238)
(0.6623613526708179 0.06970701043128792 0.7493469642536923)
(0.6591884410787587 0.08556794321363005 0.7436781621105539)
(0.6924938409460124 0.0890356072630501 0.7218188714110785)
(0.7257443491454059 0.08209902969320521 0.7552587525391645)
(0.6682789410028387 0.09020763417117982 0.7950923892902708)
(0.693244592993005 0.0833245433065152 0.7232233295458634)
(0.6696843441117107 0.08438372350448485 0.7971764222242443)
(0.6582404730206904 0.09146094544736481 0.7415770304093149)
(0.6604143710052588 0.07999765363005493 0.7457419069050321)
(0.6722516475610374 0.07366643506175467 0.8010727788612544)
(0.6953263944405298 0.07278117584309031 0.7272333050178296)
(0.7269994141235461 0.07673592368803323 0.7579663629269719)
(0.6946523454602985 0.07789984187438492 0.7260191373543098)
(0.6612559702441223 0.0747194696141233 0.7475637123607062)
(0.6710122663945269 0.07887813347248426 0.7992599690521992)
(0.6487672272189167 0.1453870891913775 0.7210255253777941)
(0.6819061015566599 0.1511436139626681 0.6970541429011782)
(0.7123308434563008 0.1395312633316007 0.7317382548578915)
(0.6535605530613176 0.15381003848877 0.7711015861182071)
(0.6557943921812692 0.1436377138402788 0.7747687065130086)
(0.6829297457143423 0.1412916476852372 0.6996316904594126)
(0.6473388420729699 0.1556136798303473 0.7172435275635372)
(0.6503597506373368 0.1359246865247999 0.7247677243564746)
(0.6598670068657484 0.1255686641861095 0.7816168872664886)
(0.7141678706485779 0.1304194691332769 0.7366814735017084)
(0.6857576387494102 0.1236812338122561 0.706947323836435)
(0.6578670703223373 0.1342488769149331 0.7784494496255092)
(0.6847860556647392 0.1321260985625914 0.7047521982032799)
(0.6516639567241868 0.1271781828487878 0.7280092997816542)
(0.6558362684644482 0.1043614249666619 0.7367698062251272)
(0.6909483261542154 0.09511931580347464 0.7185811165347772)
(0.7212546096119834 0.1001180425991161 0.7488654820211136)
(0.6667831154849343 0.0963922146895244 0.7926955313383763)
(0.6901202555906617 0.1015555784846576 0.716956450271496)
(0.6568973028730212 0.09771408561003483 0.7391918043117617)
(0.665196692192956 0.1029687219814986 0.7903027151620681)
(0.6543848376098281 0.1114561226905137 0.7340099720519151)
(0.6617362068612862 0.1175009827995203 0.7847958956732037)
(0.7197063532523611 0.10694891436594 0.7452340862682537)
(0.6875422228088931 0.1157805327048551 0.7113178597087385)
(0.6884455531660547 0.1084499259478756 0.7132017833358352)
(0.6635203930801072 0.109991392961305 0.7875452322246781)
(0.6532044779113687 0.1190362698672264 0.7312134316738186)
(0.05132768903701744 0.001727511146849767 0.2437076211513291)
(0.01970313983681747 0.002323334698994686 0.06099600418796196)
(0.0175884441582567 0.001239705406056322 0.01978390783229243)
(0.01969918849814527 0.001512653767718591 0.06100773474230844)
(0.01759339205542834 0.002606989108900354 0.01978109331918211)
(0.01749329312702615 -0.000294663782745901 0.01951617257491257)
(0.01937595731768908 0.0002964324966847225 0.05983861850427267)
(0.06284864593474489 0.001630212554053379 0.1938240825625568)
(0.06689691692398966 0.001753446654289619 0.3311681253648588)
(0.2284881874641041 0.001726286191167733 0.4908922079541351)
(0.4162040007538215 0.001657806893712396 0.576445105776373)
(0.1728490189356763 0.001753700618951466 0.4645843053515967)
(0.131340149485481 0.001771174510768023 0.4076071372536723)
(0.1924531970087399 0.001744958036947747 0.5719179261244355)
(0.2617212541709764 0.00171636226645036 0.6039953675475006)
(0.6729962427441327 0.003027258364162295 0.6617161616947077)
(0.5336468981896455 0.001576315853428883 0.6598618802921341)
(0.4631365041638733 0.001621240814344667 0.6463096650620037)
(0.3296355717057605 0.001679980259356581 0.6121116747896491)
(0.3975845507059673 0.001654110046977166 0.6340421905296671)
(0.024862191612461 0.001255355539092792 0.1048165612688904)
(0.04412542787613971 0.008622469261029716 0.144502028941083)
(0.0440646335426185 -0.004903899355412978 0.1444823587753641)
(0.0248618862806844 0.002550769163373331 0.10484796589957)
(0.03259328021749119 0.008021089444807422 0.1370228374058285)
(0.02354175129210962 0.002280956816793906 0.1009862393117077)
(0.4671742012484766 0.001636455050971155 0.5826248967103995)
(0.4670810249545516 0.004928941470794634 0.5826490356863944)
(0.4161182844706408 0.005013366848138758 0.5764740111669941)
(0.5692472674130099 0.001591793222584844 0.6669180101720632)
(0.5810951664701408 0.001553095378289286 0.7012240899937351)
(0.5208203667400901 0.00158255913324466 0.7139231700231824)
(0.5335984022741413 0.004788998565974869 0.6598905061136893)
(0.5810260584502076 0.00466165129883479 0.7012229536353686)
(0.5691934848563053 0.004745189776725925 0.6669431185417626)
(0.5207655968050293 0.004764439931081071 0.7139106305406936)
(0.05139340600021364 0.02566691319073814 0.2428715962795993)
(0.0514651376463282 0.01615398867137335 0.2431789939780783)
(0.05275894222520626 0.1927239194066356 0.2304956282329823)
(0.08587033020718668 0.1918374097325088 0.2438067134172362)
(0.05172290756973628 0.1450946966514138 0.2342175796897477)
(0.05144669869716594 0.1111941599804365 0.2372447608481702)
(0.07996410754879554 0.1465843721522909 0.2491884328520667)
(0.05134805466947112 0.05880926570712555 0.2408503769092946)
(0.05147746469221287 0.04665796264023397 0.2419878044146085)
(0.05809577229285999 0.0277889583358299 0.2629963033359231)
(0.0675977567669982 0.04746290211056943 0.2604021387593008)
(0.05369823854358406 0.06410127782219713 0.2612050568907044)
(0.05129397101835905 0.07899614862807713 0.2398234448371862)
(0.07571944707051316 0.1130209798681811 0.2535431616029654)
(0.05057010958675913 0.08549837062943304 0.2604163500414053)
(0.06278154500453886 0.0237960097583023 0.1932580038268464)
(0.06658468774859921 0.02558515424488701 0.260149187222072)
(0.06142852776967365 0.01913087889756314 0.2613581039708707)
(0.06279576618505495 0.01487689698030867 0.1935766427088925)
(0.06145111614617699 0.1781006213697036 0.1836084473613058)
(0.03878563314021084 0.2187390817799264 0.2501816943146518)
(0.0917545127104222 0.238852685190363 0.2374184346540159)
(0.0585043178596739 0.1889264753006004 0.253060039726909)
(0.04170133869534073 0.1602985361419186 0.2550653169070521)
(0.06162800201529556 0.1350046019072585 0.1861707852132166)
(0.06197698749222398 0.1036305876570973 0.1886669840673579)
(0.04636346239834981 0.1221224345259024 0.2577385136162605)
(0.05822507955648399 0.144394605564118 0.2569358375547738)
(0.06243002969006947 0.05450610216940794 0.1915933932534138)
(0.07040157476483315 0.05992730017714632 0.2573403061327036)
(0.05747831422706882 0.05248708610942698 0.2604924807288237)
(0.06264422841315678 0.04320966626015179 0.1926856576165491)
(0.0571384402907106 0.03591780789757938 0.2661009114426532)
(0.05750406939566629 0.04380024022737319 0.2658367772472945)
(0.05815140518664322 0.07800586643034185 0.2624187478724738)
(0.07182328128223144 0.08094895256093897 0.256815497269562)
(0.06230292430923362 0.07352187067261082 0.1906742770539453)
(0.05768543844326074 0.1105676973959086 0.2609206400003897)
(0.05669940801551641 0.09984323438407396 0.2616265792963323)
(0.06676153633086718 0.02805989631494585 0.3302507608111914)
(0.06688554339442657 0.01525735653082402 0.3305926610335787)
(0.08071022112647276 0.03630793511289764 0.3325723134834615)
(0.08395656876440899 0.0395598145824858 0.3289597028912995)
(0.06672831754691454 0.06181324151819501 0.3274756855282344)
(0.06677269305351725 0.04635022644307129 0.3285878927002018)
(0.0778292561538149 0.09421214761150659 0.3292939773573348)
(0.07890387844322402 0.07170998024923587 0.3302392745564404)
(0.06665504547833519 0.08184373835489656 0.325459471223341)
(0.08093055907768777 0.02293568627879716 0.3293076270552887)
(0.07931634657316566 0.02158537661809561 0.3305998683574107)
(0.09870172222664664 0.03929582349967028 0.3341564407624369)
(0.09885715829022115 0.0383741828044445 0.3334324088711428)
(0.08205802691542359 0.0569226195232094 0.3259038821420552)
(0.07791241699106902 0.05463354717100558 0.3292319067739774)