/*--------------------------------*- C++ -*----------------------------------*\
  =========                 |
  \\      /  F ield         | OpenFOAM: The Open Source CFD Toolbox
   \\    /   O peration     | Website:  https://openfoam.org
    \\  /    A nd           | Version:  7
     \\/     M anipulation  |
\*---------------------------------------------------------------------------*/
FoamFile
{
    version     2.0;
    format      ascii;
    class       volVectorField;
    location    "0";
    object      grad(Phi);
}
// * * * * * * * * * * * * * * * * * * * * * * * * * * * * * * * * * * * * * //

dimensions      [0 1 -1 0 0 0 0];

internalField   nonuniform List<vector> 
12672
(
(-0.6633246622356167 0.05019962810794797 0.6602223353361155)
(-0.6622797655857314 0.05861042212930002 0.6576902912196577)
(-0.6657016782697651 0.02820685798230169 0.6655306422507833)
(-0.5325370829107616 0.02638455723088995 0.6554698658922982)
(-0.7395491477959487 0.02218469668511585 0.7786282966809498)
(-0.6650364346123668 0.03510347671738882 0.66411483279537)
(-0.5317160169576811 0.04088893048730212 0.6535142372925989)
(-0.7379288466315947 0.03813203522429195 0.7766113695380361)
(-0.7349874043520496 0.05276007872594299 0.7724233066260263)
(-0.6642443277397745 0.04240158468150465 0.6623528219825491)
(-0.5302414289106389 0.05722095625911398 0.6497532421306684)
(-0.5313944817492184 0.04122511184201808 0.6526707207267775)
(-0.7373292095249554 0.03550450436672091 0.7754045645712273)
(-0.7341628455263296 0.05066822771834692 0.7707057440608047)
(-0.5298300921600382 0.0581087337331003 0.6485397315822179)
(-0.661115388735392 0.06776626083140877 0.654713743862716)
(-0.7310196055775017 0.06990287240119941 0.7665922034136947)
(-0.52833685972796 0.07634552357302885 0.6444764318758652)
(-0.5260559085849122 0.09958632014964529 0.6373444890582839)
(-0.7299497340721386 0.06860537250088335 0.7642524205050217)
(-0.527862487295916 0.07804279367275692 0.6428095603441606)
(-0.521255944173932 0.1679438214636861 0.6147805354643803)
(-0.5232372683102324 0.1337300857114004 0.6247261862501268)
(-0.525583532935341 0.1024870211463254 0.6350970849237852)
(-0.5235562313043856 0.1290019642156237 0.6277887897364059)
(-0.5214585778264919 0.1755603463465963 0.6104627344880682)
(-0.3067278205755125 0.01525176714176012 0.6911745518152699)
(-0.6662444568547795 0.02162434331266839 0.66660746515417)
(-0.5327662486799857 0.02640012218725142 0.6559906565666381)
(-0.6666731790603659 0.01527786188082651 0.6673345698924843)
(-0.7409052378179979 0.01000245872466506 0.780512180572972)
(-0.7399434876245131 0.02515640292465101 0.7793903179071515)
(-0.5861107109289733 0.01373827202432529 0.8400774841101935)
(-0.5333078864814944 0.01278643562417164 0.657006208809533)
(-0.5862958500442867 0.01064846738976822 0.8403399489876883)
(-0.6669887834818681 0.009099247859732131 0.6677200216234225)
(-0.533487406806335 0.01300447210169502 0.6571736510159338)
(-0.7411118301139824 0.01316604479864581 0.780840960720905)
(-0.5959330455806457 0.03040465873529449 0.7748523462856817)
(-0.5052185720837744 0.02759652241653969 0.7874515288490299)
(-0.5848728295490617 0.02656115570841562 0.8382755405406913)
(-0.5844344658875607 0.02992940535253184 0.8376342358854098)
(-0.5048570222418817 0.03109666945110751 0.7868438740684101)
(-0.5963446629262099 0.02698230086833256 0.7754933829565466)
(-0.3000702077468879 0.09631353356819636 0.6757387023441479)
(-0.2993610740122267 0.1029533103455349 0.6740837489209742)
(-0.2978040497149531 0.1175066425607446 0.6704389434595134)
(-0.2986067896306785 0.1100027065507563 0.6723186536473739)
(-0.2929460335615584 0.1639620834601903 0.6589775849373092)
(-0.291774522170464 0.1756089271837188 0.6561946074520101)
(-0.2905261997433196 0.1882981479278881 0.6532128003227922)
(-0.5969915402047047 0.02035138668497764 0.7765350820784646)
(-0.5055342606510527 0.02417320770954119 0.7879873934655162)
(-0.5852577960346205 0.02326715198555336 0.8388401037444896)
(-0.5966736909494899 0.02363387270872469 0.776050610443945)
(-0.5058122904344343 0.02081798370174476 0.7884489363086066)
(-0.5855927471394382 0.02003861934945574 0.839328257475117)
(-0.6780781030539096 0.05012181325651813 0.8599256145448799)
(-0.6789969961691458 0.04623219098262314 0.8611109281907948)
(-0.6806168683362099 0.03886618532503987 0.8632031838058568)
(-0.6798410906493559 0.04248447620283946 0.8622030833113096)
(-0.6770860299691106 0.05416997956986558 0.8586409346340236)
(-0.6760128131243215 0.05839142843871643 0.857255562277355)
(-0.6736196882083387 0.06743162395008652 0.8541587516708045)
(-0.6748606148019505 0.06280604185502134 0.855762036385135)
(-0.6500769766869211 0.1510355685680456 0.8234793045149809)
(-0.6528275227975678 0.1410312878719183 0.8270762975358025)
(-0.6577974029696309 0.1232714570508158 0.8335805264281611)
(-0.6553883666704222 0.1318042538767301 0.8304406320964954)
(-0.6471511331295784 0.161939055298476 0.8196171198918751)
(-0.6830571520771384 0.02543273707271531 0.8663519545472492)
(-0.6825417508506926 0.02865736533727127 0.8656884288749298)
(-0.6813231315403103 0.03536306458684438 0.8641163339099607)
(-0.6819650555168539 0.03196429791580613 0.8649433965180103)
(-0.5955196520053205 0.03391438046857908 0.7741371438222483)
(-0.5040081598469136 0.03837538176243568 0.7854013428249687)
(-0.583398586037338 0.03693378949137595 0.8361142360952691)
(-0.5839446507589916 0.03338357704016039 0.836914166041492)
(-0.5950096407903908 0.03752079105893738 0.7733352006917437)
(-0.5044572268082936 0.03468614506977329 0.786159648444501)
(-0.5938934956653503 0.04507776564349075 0.7714821943414617)
(-0.5035197435427697 0.04217835559102406 0.7845617501931387)
(-0.5827986305310096 0.04059305833813097 0.835231183658887)
(-0.5821386007370795 0.04437284666320006 0.8342634607434877)
(-0.5945071645923634 0.04123843489231633 0.7724548674308963)
(-0.5029778092998095 0.04610677999009753 0.7836434755249073)
(-0.5932971109950156 0.04905500016520906 0.7704246558381709)
(-0.5806393732702644 0.05235127865173039 0.8320592039827612)
(-0.5017534225188138 0.05439979715143656 0.7815466185362611)
(-0.58142136027766 0.04828786648272997 0.833206711420731)
(-0.5023948178750542 0.0501761539969877 0.782637310246754)
(-0.5925736524889217 0.05318208239447261 0.7692677711836086)
(-0.3043273744671204 0.05374914402307378 0.6856283280217339)
(-0.3039264671896044 0.05828455948296207 0.6846988428183053)
(-0.3046957379474004 0.0493819161220725 0.6864824362950488)
(-0.3050316397041969 0.04516685454219041 0.6872609494178609)
(-0.4392279729182945 0.04306170166201304 0.7799525966453096)
(-0.4387330746643049 0.04707397518517407 0.7790577890772481)
(-0.3666338285177272 0.05283628391625766 0.7014202419284626)
(-0.4536715025183138 0.0562013112473406 0.7016445767622342)
(-0.4541712254201599 0.05183550421676043 0.7026857418294693)
(-0.3661860265568888 0.057290286634588 0.7004478099094765)
(-0.3670442896002946 0.04854659106733049 0.7023148118835272)
(-0.4550447286430347 0.04356986779542901 0.7045259578295756)
(-0.4546202949004716 0.04762973820492393 0.7036534512806124)
(-0.3674219027486105 0.04440615692521542 0.7031301063695757)
(-0.4376057101549174 0.05554465107410766 0.7770170590398706)
(-0.438193210608312 0.05123012295350493 0.7780797649477831)
(-0.4407854213966272 0.02817269759805873 0.7827683850046848)
(-0.4404564444281158 0.03174674169250723 0.7821746935412877)
(-0.368360277662339 0.03273834432406619 0.7051544644233981)
(-0.4563749206445831 0.02850395595106549 0.7072780039051328)
(-0.4560884253449 0.03212102173122421 0.7067026557425203)
(-0.3686144146156105 0.02905241190997861 0.7056970444568934)
(-0.3058663047276455 0.03330244445376126 0.6891941516563012)
(-0.3060929056141448 0.02955369880103266 0.6897168461988713)
(-0.3056141963968011 0.03714240250950294 0.6886111886527266)
(-0.3053369067958594 0.04109141269365635 0.6879690064694467)
(-0.4396788632735515 0.03917849327958049 0.7807689934733116)
(-0.4400880987426376 0.03541138359632472 0.7815084284276037)
(-0.3680779672947226 0.03651635286824652 0.7045459817260379)
(-0.4554230753924308 0.03964059288601384 0.7053298915487975)
(-0.4557766139547125 0.03582917252867404 0.7060483673914236)
(-0.3677648958391537 0.04040054188258218 0.703873484274172)
(-0.5902383184488644 0.06663918871977943 0.7651990458118079)
(-0.5768474041852711 0.07043263635507328 0.8264742608837832)
(-0.4986649148941501 0.07319123387753594 0.7762202132181728)
(-0.5779033040176963 0.06560123403526262 0.8280271917995243)
(-0.49952772515043 0.06817109830467623 0.7777006757206425)
(-0.5892742490375643 0.07154441462097462 0.763622132601759)
(-0.5910381362131417 0.06195601462164919 0.7666602057739162)
(-0.5797961399085033 0.05658015804278853 0.8308154518331526)
(-0.5010690604832057 0.05879550769045237 0.7803602683500654)
(-0.5788827004988709 0.06099001961984493 0.8294737197992714)
(-0.5918782204981914 0.05747773221886737 0.7680176056419225)
(-0.5003208190593459 0.06337891832861013 0.7790826483752183)
(-0.3030166831444013 0.06793191627584931 0.6825885935246512)
(-0.3034904490429355 0.06300685991625886 0.6836869708949416)
(-0.3025036237208717 0.07307499972384576 0.6813984623652454)
(-0.3019525878888223 0.07845558783113057 0.680120270819251)
(-0.4347458307296146 0.0747379349428465 0.7718353532862873)
(-0.435541566447794 0.06961094255543715 0.7732766956806751)
(-0.3651788069106704 0.06676007943463039 0.6982424089762945)
(-0.4531477647688463 0.06074482533850677 0.7004974811406866)
(-0.3657031076173385 0.06192607525626212 0.6993884206508436)
(-0.4525683590417212 0.06548213807127946 0.6992709429578399)
(-0.4369695893545381 0.06003458519731657 0.7758640623581177)
(-0.4362817854379803 0.06471667340786563 0.7746193065443497)
(-0.3646168751972232 0.07181088190348038 0.6970009759980565)
(-0.451303797307151 0.07561915358597061 0.6964991294546408)
(-0.4519662406158379 0.07043363651326719 0.6979268132238853)
(-0.364011847532809 0.0770988438668528 0.6956691490934467)
(-0.300737009288763 0.09004168162968659 0.677293706389804)
(-0.301363838574396 0.08410076468524763 0.6787517681330862)
(-0.4338940198307889 0.08012302028421638 0.7702883976324139)
(-0.432982260076699 0.08579253415622916 0.7686345424603201)
(-0.3619562650052116 0.09466179561485047 0.6910808480174351)
(-0.4482729624200255 0.09925389649748066 0.6896221768788616)
(-0.4491091580716857 0.09284940954104753 0.6915090281202381)
(-0.3611814463503746 0.1011910043007883 0.6893431392228704)
(-0.3626822914988104 0.0884932151877621 0.6927134646755736)
(-0.4506213941408779 0.08106503349900294 0.6949428449211169)
(-0.3633694362517649 0.08265012726577539 0.6942385712518788)
(-0.4498736802554294 0.08679730525043552 0.6932981299073105)
(-0.4309703725847225 0.09811411416322859 0.7649767164062187)
(-0.4320094243197061 0.09177855239842181 0.766864762265636)
(-0.6677206863982649 0.08853577706998168 0.8465103581761507)
(-0.6693489957096741 0.08281573775750682 0.848619327325793)
(-0.6722928469450463 0.07229244707610699 0.8524367155663145)
(-0.6708680883012955 0.0774104360407349 0.850593885080711)
(-0.5872685450184882 0.08212430860190387 0.7601089126472792)
(-0.5757200012228334 0.07550918185264831 0.8248063072049847)
(-0.4977555361365752 0.07846537096243807 0.774625669518182)
(-0.5883646679885526 0.07669897200055169 0.7619282509658004)
(-0.4967696816370479 0.08401777286874253 0.7729239861178259)
(-0.5745085846010051 0.08085423703243333 0.8230218220606202)
(-0.586243526045749 0.0878543589180445 0.7581549630799138)
(-0.494615312107396 0.09608555758911719 0.7691488853977246)
(-0.57183574727812 0.09247236534371332 0.8190682925311268)
(-0.4957350036763348 0.08988097439569986 0.7710957788086203)
(-0.5732188084306921 0.08649886027817077 0.8211096128419768)
(-0.5850060388992123 0.09391608248219878 0.7560637893013952)
(-0.2969500248254412 0.1255176608653472 0.6684331163940685)
(-0.2960406446572276 0.134093851575262 0.6662956269107442)
(-0.4260814853286125 0.1278127714431221 0.7560590665593457)
(-0.4274239436811616 0.1196359524890182 0.7585092518170365)
(-0.3594936920250099 0.1154986918482424 0.6855037942061778)
(-0.4474237885477848 0.106052430556391 0.687568721990191)
(-0.3603646479894888 0.1081220998062042 0.68748339530386)
(-0.4464954362761391 0.113285900793843 0.6854041912542037)
(-0.4298633545659951 0.1048394283662474 0.7629588078761876)
(-0.4286819568665069 0.1119962243545382 0.7608077881428428)
(-0.3585773755929761 0.1233731381492865 0.6833839288243346)
(-0.4445368945924899 0.129270127449628 0.6805562467665847)
(-0.4455598662609187 0.121007462011024 0.6830443403557712)
(-0.3576010054346773 0.1318019595854576 0.6811262919199987)
(-0.6659877314978027 0.09460861616938795 0.8442536078819042)
(-0.6641315803140292 0.101069153648731 0.8418455406354923)
(-0.6600441598874576 0.1153456440450652 0.8365215060300913)
(-0.6621581505098149 0.1079663783927219 0.8392697242870851)
(-0.5765122593669382 0.1397521753668168 0.7398822985755803)
(-0.5634250661343353 0.1287473707264573 0.8065540332055245)
(-0.4879336603802384 0.1337645859822702 0.7571802833347603)
(-0.5613865203521249 0.1376595505446199 0.8035178934321797)
(-0.5782391216125802 0.1307171430400247 0.7430660343412406)
(-0.4863199449295803 0.1430225213279666 0.7542743558444601)
(-0.5749767657408471 0.1495231270307177 0.7364037195336511)
(-0.5568969658767683 0.1577458790621268 0.7967819454553993)
(-0.482825344078227 0.163888352181224 0.7478070658793158)
(-0.5592208041618613 0.1472961263988013 0.8002595707418089)
(-0.4846440333206047 0.1530328495710211 0.7511445837192293)
(-0.5730674883861181 0.1601112316167557 0.7327110460704347)
(-0.5811965084141132 0.1145051020269105 0.7488211113681142)
(-0.5653272170873075 0.1204702158760715 0.8094015596910316)
(-0.4894233931042091 0.125166797622182 0.759909545597949)
(-0.4908542369803266 0.1171615299750624 0.7624489813575384)
(-0.5671185324410047 0.1127634268445949 0.8120596030723573)
(-0.5796438311326212 0.1223212169642087 0.7460607855829623)
(-0.5824701272428536 0.1071969356177553 0.7514129660040573)
(-0.4934437842720161 0.1026723510573777 0.7670591932849988)
(-0.570365726347384 0.09881391742321639 0.8168832289056842)
(-0.5838595606690012 0.1003521783461651 0.7538141044428901)
(-0.4921766607906277 0.1096802659674739 0.764835842744799)
(-0.5687909484020843 0.1055608309760268 0.8145533817695132)
(-0.2940426908638202 0.1532292858325135 0.661579495598804)
(-0.2950733475131366 0.1433049507499168 0.664013661094312)
(-0.4246517799929668 0.1365943885216056 0.7534392786351077)
(-0.4231251132472195 0.1460530224176131 0.7506444852284098)
(-0.3543413470450158 0.1611500991380591 0.6733543013425035)
(-0.4400910763796542 0.1692343605969057 0.6684768121571106)
(-0.4412973817627308 0.1580307145842916 0.6718116914924416)
(-0.3531229456794981 0.1725897415499858 0.6703921608422864)
(-0.3554846188971952 0.1506058431096684 0.6761259113236682)
(-0.4435158156074072 0.138143828845663 0.6778358492373339)
(-0.3565761505909391 0.1408542802501758 0.6787061835227272)
(-0.4423985185346469 0.1476992896370543 0.6749646148851444)
(-0.4197578733020316 0.1673740100271336 0.7444544585651256)
(-0.4214978591616197 0.1562799992918817 0.7476518975966897)
(-0.5544257977592687 0.1691335647672637 0.7930397198531927)
(-0.4809428113678286 0.1757172934759232 0.7442013235288689)
(-0.5714111085222303 0.1716511708759776 0.7286380962351801)
(-0.4389248885210565 0.1814404055082684 0.6647930440803708)
(-0.3518502972478393 0.1850528920053903 0.6672006420701412)
(-0.4179008880404854 0.1794619684722027 0.7410234371994389)
(-0.4410752089955062 0.02467731321585266 0.7832916819972879)
(-0.4413267886271878 0.02125088914452357 0.7837446553707683)
(-0.3690333867512094 0.02190873860346195 0.7065845194415337)
(-0.4566231202386907 0.02496499138065482 0.7077882974214409)
(-0.3688382801275121 0.02544567732811028 0.7061748764674847)
(-0.4568450383665335 0.02149449610305467 0.7082210456234884)
(-0.3064644466273431 0.02228066519075255 0.6905727611256873)
(-0.3062927197343433 0.02588249378019205 0.6901774475168148)
(-0.3066093539065949 0.0187403395583715 0.6909050974333463)
(-0.4417177092738576 0.01456613900904974 0.7844452271730404)
(-0.441540599172872 0.01788330768768841 0.7841289670119617)
(-0.457194923868876 0.01472004321893426 0.7088710976468329)
(-0.3693388653663566 0.0150075418093965 0.7072021409108085)
(-0.3691996334664162 0.01843216975182883 0.7069274549314364)
(-0.4570331320030548 0.01808185523573271 0.7085845082024653)
(-0.6845155552414162 0.0131555354404238 0.8682253071780991)
(-0.6842392724600649 0.01614948196416856 0.8678728978784281)
(-0.6835106048818608 0.02227914676493235 0.8669369284165908)
(-0.6839047543344429 0.01918819891728053 0.8674433130295909)
(-0.5974705614963434 0.01394186681843832 0.7772610540422235)
(-0.5062470020492404 0.01427083784641545 0.7891549676060391)
(-0.5972418711621361 0.01712255002601598 0.776934554079609)
(-0.5060480891896005 0.01751968100645223 0.7888386762872223)
(-0.5858763415058446 0.01686489930686427 0.8397406879109481)
(-0.3069198705708214 0.005019417504642246 0.6916040159385495)
(-0.6850044082448092 0.004352002091452343 0.8688408596202195)
(-0.6847342856778916 0.0101964799384989 0.8685024989243429)
(-0.6848965300647937 0.007264867761414793 0.8687062237325165)
(-0.5976465062218622 0.01079971169219696 0.7775020915444204)
(-0.5064072603258053 0.01106072740762083 0.7894000717174221)
(-0.5977876460108632 0.007691849374882015 0.7776785566310312)
(-0.5864334303070758 0.007587514568186948 0.8405315876138469)
(-0.5065296182052377 0.007881575676192114 0.7895775087379874)
(-0.5978808573189136 0.004609588984214325 0.7777875720816144)
(-0.5865249695260484 0.004546067056848927 0.8406576206235152)
(-0.5066125444964735 0.004723195550211606 0.7896937063649984)
(-0.3068194266873044 0.01180558863318022 0.6913804777320467)
(-0.3068828275296656 0.00839659217185172 0.6915217244997997)
(-0.4418588621234195 0.01128951246456304 0.7846951926982968)
(-0.4419646528715232 0.008044529550214235 0.7848806054169826)
(-0.3695930325287262 0.004959028791071316 0.7076380414685867)
(-0.4575055163421254 0.004867225455597063 0.7093241849192723)
(-0.4420354048332722 0.00482124511817197 0.7850038171856863)
(-0.4573279478626816 0.01140108296252752 0.7090857537730595)
(-0.3694511329013869 0.01162562201499539 0.7074093086286212)
(-0.3695358946598872 0.008279069208249772 0.7075516875071167)
(-0.4574321322212878 0.008119679245774022 0.7092329272640128)
(-0.5794286597807997 0.03257494465146417 0.6987960812101797)
(-0.5199476859327903 0.02789573780004077 0.7120465555957173)
(-0.5647386068862725 0.02860183734143835 0.6679808978124261)
(-0.5322913816247317 0.03346587615012002 0.6549055444441221)
(-0.5646477779191209 0.02998017888185839 0.6676565902726028)
(-0.519651192327338 0.0314329549240413 0.7114763688984213)
(-0.5797777454048837 0.02544152090178613 0.699209074169198)
(-0.6721829215733883 0.03022844560372535 0.7615316228268515)
(-0.6841455572468584 0.0259233239963691 0.8175642899006805)
(-0.7028093408135435 0.02668879386321111 0.7469423734443765)
(-0.7390464348857122 0.03148268519732807 0.7781675907398282)
(-0.7026221152371196 0.02787334176575898 0.7466136824305423)
(-0.6836824091808722 0.02921036793188124 0.8169180522450262)
(-0.6725389371527088 0.02574524350938452 0.7621749568169763)
(-0.5791187573604971 0.03244338733072142 0.6978898992922158)
(-0.5320178243443502 0.03360303310488513 0.6542248901760931)
(-0.518954274736999 0.03878848054396972 0.7100564185809952)
(-0.5640646240773417 0.03724083768701555 0.66627572309748)
(-0.5641720878752213 0.03565473341693025 0.6666871855978272)
(-0.578689731888131 0.03976471346421392 0.6973713769531604)
(-0.519318990789815 0.03506114275470019 0.7107720741583193)
(-0.671670319455685 0.03249507747139952 0.7607829689929619)
(-0.7385519494543658 0.02866184277841713 0.7771883155467721)
(-0.6825805207761874 0.03604561184414282 0.8153404256640477)
(-0.7016767713763457 0.03463835016871238 0.7451079244855198)
(-0.7019082629733132 0.03326068496244904 0.7455230328796416)
(-0.6831553942654969 0.03258152639010552 0.816148182602448)
(-0.6712279770948461 0.03717296359458046 0.7599760059880292)
(-0.6693467368563538 0.04722619931299104 0.7569603963248906)
(-0.6991843462453983 0.04952163858726069 0.7410349634339535)
(-0.6796642275628916 0.05108776263543756 0.811116104681066)
(-0.7358701515421862 0.04280476531362563 0.7732540015072906)
(-0.6804816474353294 0.04712397864250061 0.8122791747995086)
(-0.6995070586434856 0.04759819538023539 0.7416398755150635)
(-0.6687176672500944 0.05245416144397828 0.7557943386084273)
(-0.5773730139799359 0.04773034328286677 0.6942692545799094)
(-0.5625660155336917 0.05321282108048846 0.6625266576216639)
(-0.5306649631442923 0.04935527273884095 0.6507859356023116)
(-0.5171334951747903 0.05497771629279381 0.7062347494698088)
(-0.5176447661724064 0.05071209797698639 0.7072721646485238)
(-0.5627054442064908 0.05104131065033544 0.6631300733496047)
(-0.5767727583193469 0.05558224723998989 0.6935196141762491)
(-0.5778062409837703 0.04739839092131965 0.6956207758309952)
(-0.5185534773257452 0.04263180561383009 0.7091877642948526)
(-0.5634951222758957 0.04310181614279218 0.6650769299413031)
(-0.5310333548861305 0.04877065300353307 0.6518056428622678)
(-0.5783191044711189 0.03983957465619395 0.696250497917387)
(-0.5181171545758062 0.04660018375471324 0.7083178283773464)
(-0.563370931732439 0.04495007927267419 0.6645737536622189)
(-0.6700759359722145 0.04454714253798182 0.7580722665480338)
(-0.6819381890330085 0.03961645743453949 0.8143937830958159)
(-0.7365797633883131 0.0451916239435551 0.774705162012468)
(-0.7008099232393002 0.04019978276201817 0.7437627852923961)
(-0.6812456170725827 0.04330403545803162 0.8134148449396297)
(-0.7005332664374101 0.0418215253038989 0.7432565911209816)
(-0.6706089319823867 0.03962321568763362 0.7590520644653936)
(-0.6671437023479841 0.06101313056069027 0.753108527856894)
(-0.6979920076020565 0.05556178936133538 0.7391236876237864)
(-0.6787713867576322 0.05521359052144059 0.8097756997910918)
(-0.7331387720480502 0.06095186364019228 0.7697326747358196)
(-0.6976224064517116 0.05785365132329521 0.7384101298236091)
(-0.6778207782552758 0.05951498412519198 0.8084125438524068)
(-0.6678751963633835 0.05541373480023238 0.7544776465569847)
(-0.5755854187683269 0.06443813018999418 0.6910356509469845)
(-0.56180424909464 0.05958498665731563 0.6608166417949098)
(-0.5165871212753166 0.05941830886271978 0.7049959115191033)
(-0.5293412343611256 0.06636416666944742 0.6473231443749036)
(-0.5616520830298207 0.06214996811061364 0.6601020994930084)
(-0.576276402184463 0.05622883172273446 0.6919158272326907)
(-0.5159977419814726 0.06404565891245087 0.7037751993715309)
(-0.6661855016074612 0.06431409474723225 0.7515660888747362)
(-0.6756975220265645 0.06872605429932514 0.8052657103096269)
(-0.7321941279560217 0.05921886021678901 0.7677211602481337)
(-0.6958398083558816 0.06695398325366872 0.7353408867171413)
(-0.6962568718599037 0.06421457093981948 0.7361754801091058)
(-0.6767909042200994 0.06401369383395461 0.8068482100418017)
(-0.665344319722508 0.07036525830595601 0.7499735594394572)
(-0.5750267012286971 0.06546666635566438 0.6891531660594544)
(-0.5147057108402776 0.07395052203208077 0.7009030298250809)
(-0.5288932808971091 0.0676181816050038 0.6458945759774171)
(-0.56063411887448 0.07190419698860037 0.6572611550854884)
(-0.5607954185755231 0.06886277860478121 0.6580994511584713)
(-0.5153756643660087 0.06888488117883441 0.7023242881244193)
(-0.5742422007099371 0.07411012558848802 0.6881304697054109)
(-0.5720710657489578 0.08683025054296459 0.6822146426440335)
(-0.5583307525709819 0.09460245709843215 0.6501307103956823)
(-0.5267518196122749 0.08958244853393466 0.6392339795726463)
(-0.5116472548063608 0.09704109446972238 0.6937448459812671)
(-0.512482639268026 0.09078779066210836 0.6956343800866062)
(-0.5584913127743559 0.09027922172846443 0.65126810890179)
(-0.5710944884430612 0.09664989104321463 0.6808600410544541)
(-0.6633098549469436 0.08068214575175334 0.7463385998617234)
(-0.6745214747716619 0.07367865783128251 0.8034540490458273)
(-0.6942940624890722 0.07370493868108882 0.7327471212278238)
(-0.7286144635230347 0.07977782610442292 0.7629509856924193)
(-0.6938295525466301 0.07698781877159525 0.7317758654204801)
(-0.6642690812615156 0.07408121956047399 0.7481796070525717)
(-0.67327424175197 0.07889162889116175 0.8016286183730779)
(-0.5727438414401337 0.08477435969108789 0.6847582924941382)
(-0.5140076807315299 0.07927371652138027 0.6992193181382047)
(-0.5596866256527973 0.07903024309421092 0.6549348482606171)
(-0.5272370129172451 0.08734435584783319 0.6411697405889424)
(-0.5736238429763265 0.07560198964739689 0.6859376425718944)
(-0.513255576385632 0.08487317306293121 0.697577565524932)
(-0.5595215421781276 0.08264965787558239 0.6539574658499165)
(-0.5646768308607174 0.1486630459691249 0.6603995223573951)
(-0.5536384938018846 0.1611196723568103 0.627525672932793)
(-0.5222083166635986 0.1529934334406813 0.6181932170609952)
(-0.5038203048302813 0.1652517360733569 0.6714777961182599)
(-0.5535633686948882 0.1519075533198691 0.6297117600127899)
(-0.5049440708730536 0.1543571849127446 0.6748627354361998)
(-0.5633786916593263 0.1630679189768282 0.6580125320726823)
(-0.5653938231077601 0.1426917449508993 0.66509455473289)
(-0.5070090747992554 0.1349868229385082 0.681250027470066)
(-0.5546904794006939 0.1332237876916522 0.6363993289287151)
(-0.5223361894801064 0.1469946957787677 0.6218080532609581)
(-0.5546507216558473 0.1407824799789177 0.6345670159735259)
(-0.566637167858295 0.1298545630116031 0.6671532463508856)
(-0.5059383835089468 0.1442919627738179 0.678347251956125)
(-0.5693037829574917 0.1100111769245481 0.6763574971611889)
(-0.5572319882430101 0.1028482060395524 0.6470263363636856)
(-0.5108021384353127 0.1036818376569267 0.6915056589250513)
(-0.5248164823498943 0.1133532992957561 0.6329199153511671)
(-0.5703761828252432 0.09939542731776455 0.6779118527204142)
(-0.5570886845887676 0.1080320719493304 0.6457003957272419)
(-0.5098835181082172 0.1107397032849706 0.6893315508598464)
(-0.5685549561211359 0.113605133107441 0.6729336153136136)
(-0.5079735426035833 0.1263321594933426 0.6842413180739858)
(-0.5243930163930047 0.1170694569299336 0.6303033962694577)
(-0.5558387154129029 0.1232790494553872 0.6405599869938509)
(-0.5559453131106691 0.1170360317301385 0.6421128425508555)
(-0.5089724314846651 0.1182770111339206 0.6867480503165692)
(-0.567391277529252 0.1252072686430205 0.6711478058961631)
(-0.5614701315381685 0.1871605210785541 0.6496437139409053)
(-0.5527235051715886 0.1737457399580288 0.6218075290798978)
(-0.5028400955677039 0.1771269369311712 0.6673821130553632)
(-0.5204845640461015 0.192677390601545 0.6064288751648348)
(-0.5627716614537973 0.1707300864140121 0.6524345559223859)
(-0.5529935760370058 0.1850651578181732 0.619159277282579)
(-0.5017035632989584 0.1900808175607083 0.6633958069750976)
(-0.5803056695912339 0.01874302313605599 0.7002143419924134)
(-0.5202151137861598 0.02443400518455704 0.7125915717656637)
(-0.5651264548836079 0.02307589075566573 0.6687255097862843)
(-0.5329600386996927 0.01947339941579568 0.6564052681273144)
(-0.5800312171326267 0.02573365698557091 0.6999069348552616)
(-0.5652044848485024 0.02185695075348497 0.6689587220781325)
(-0.5204475676785116 0.02104149703567228 0.7130164375891558)
(-0.6854867508070955 0.01340207978850774 0.8194242428387791)
(-0.6737311702493499 0.01303805142913862 0.7639592857643106)
(-0.704050066099709 0.01432544069749046 0.7487744460035863)
(-0.6735404750657503 0.01726937113894659 0.763643991665687)
(-0.7406302102526244 0.01907427476040616 0.7802823044898968)
(-0.703947676632632 0.01526252691969631 0.7486263198423815)
(-0.6852325859470551 0.01645596340300721 0.8190899175944324)
(-0.6732227600261002 0.01928603428403152 0.7632366722745391)
(-0.684562892058449 0.0227077082900856 0.8181653895151563)
(-0.7033764862816255 0.02144037681767149 0.7477876182894428)
(-0.7403307577838096 0.01599036977874736 0.7797368724567209)
(-0.6729501892600694 0.02362162091278031 0.762754728268806)
(-0.7035205582307735 0.02040257127960903 0.7480292137510618)
(-0.6849193246800478 0.01955586273409213 0.818655361568455)
(-0.5655914538500239 0.01533927174307357 0.6695965665891843)
(-0.5807181505061885 0.01226545050182181 0.7008918497018962)
(-0.5208330998941199 0.01441750900396166 0.7136688545416717)
(-0.5805116765786029 0.0191549023892189 0.7006959406198844)
(-0.5331583393209478 0.01960192530373103 0.6567537768807546)
(-0.5655183929767169 0.0164466706302024 0.6694665439464604)
(-0.5206574991284305 0.01770388748849019 0.7133965677884355)
(-0.7045518572231555 0.003364656807973511 0.7493389284406122)
(-0.7413822305839864 0.007369677116253558 0.7811097533036999)
(-0.6741939379849365 0.005063780439319283 0.7644491053739051)
(-0.6859639571182466 0.00443157054818833 0.8200052977800947)
(-0.5337099184171878 0.006562172012258526 0.6573345400241088)
(-0.5811132872172745 0.006509369750656022 0.70135077717675)
(-0.5660538887123998 0.003676467095844813 0.6700055760899224)
(-0.5212047026804649 0.004770783729937725 0.7140959527601416)
(-0.5335926360862915 0.006267693077834853 0.6572801743029587)
(-0.5658417568565628 0.01001098650946096 0.6698621789678005)
(-0.5808819343015325 0.01276668535476806 0.7011529521109657)
(-0.5209929280570612 0.01117002681720251 0.7138796283409431)
(-0.581017919690994 0.005942267014080431 0.7012457783682385)
(-0.5659050107712746 0.008959053226849057 0.6699021464324788)
(-0.5211122020307603 0.007957807492326392 0.7140104305741392)
(-0.685700146141309 0.01038412105465704 0.8196935991703964)
(-0.6739597871651013 0.01110217188591229 0.7641910370328415)
(-0.7043411123264717 0.009264158800180167 0.7491227961321946)
(-0.7044028117951876 0.00837891638290205 0.7491867858214705)
(-0.7412758308736295 0.004153332276695572 0.7809612687424156)
(-0.6740714840736687 0.006939134510855577 0.7643513188829518)
(-0.6858543665214801 0.00739677930875819 0.8198796210422484)
(-0.03648406756186591 0.06340650413109168 0.2399856801394946)
(-0.05112188166576744 0.08509740507190655 0.2626279033730027)
(-0.06579485314418536 0.06481197685619952 0.2543342088608553)