/*--------------------------------*- C++ -*----------------------------------*\
  =========                 |
  \\      /  F ield         | OpenFOAM: The Open Source CFD Toolbox
   \\    /   O peration     | Website:  https://openfoam.org
    \\  /    A nd           | Version:  7
     \\/     M anipulation  |
\*---------------------------------------------------------------------------*/
FoamFile
{
    version     2.0;
    format      ascii;
    class       volScalarField;
    location    "0";
    object      mag(grad(Phi));
}
// * * * * * * * * * * * * * * * * * * * * * * * * * * * * * * * * * * * * * //

dimensions      [0 1 -1 0 0 0 0];

internalField   nonuniform List<scalar> 
12672
(
0.9372369723121499
0.9352038219827079
0.9417459248986192
0.8449453441662608
1.074098285616825
0.9405074293052658
0.8434895883588984
1.071969334494754
1.067533547520833
0.9390046230483714
0.8406006700138411
0.8426497936710828
1.070591972605304
1.065621741979655
0.8394643142713775
0.932907235330798
1.061574152682368
0.8368502539644048
0.8323822750701808
1.059063300117493
0.8354242120074883
0.8233273913154802
0.8257988753684281
0.8307165261838311
0.8275695732854378
0.8218304166899726
0.756331166482639
0.9427167130759337
0.8454942836511522
0.9434097566358381
1.076215538184363
1.074987663712215
1.024424074733112
0.846308426717828
1.024708467566036
0.9438256517381899
0.8465548636120427
1.07663025009057
0.9779860922488927
0.9359953439598561
1.022490881918309
1.021807480570273
0.9353987908463829
0.9786444648441605
0.7456146593055997
0.7447182939234224
0.7429558802376043
0.743827252999142
0.739562303556546
0.7392984714873397
0.7392892720416765
0.979703940848762
0.9365219511167655
1.023093723874253
0.9791999813015313
0.9369798219631562
1.023617279828727
1.096254611190165
1.097582054763738
1.099940743112136
1.098809808895545
1.094826074449782
1.093293181849607
1.089907189308462
1.091654758255738
1.059966972860738
1.063075162265751
1.068994747188812
1.066085323013009
1.056788091322812
1.103530518955674
1.102769668666284
1.100976291497169
1.101918841143697
0.9772830493630665
0.9339979466941823
1.020198525188962
1.021044141889548
0.976468952411769
0.9347337670060374
0.9746416086618382
0.933192523375461
1.019270901326182
1.018258229488386
0.9756156515153408
0.932314114739151
0.9736334039460666
1.015975027793785
0.9303391595998336
1.017160724857742
0.9313642460648316
0.9724940983335942
0.7520573950963731
0.7513859811636114
0.7526859914365246
0.7532675212463404
0.8961593470793591
0.8953399961277608
0.7932227889430741
0.8374255379930802
0.8382873452864997
0.7924654676357689
0.793929705341372
0.8398338310053991
0.8390925956031184
0.7945833548946059
0.8934984475991571
0.8944528696036752
0.8987835296491566
0.8982243518535644
0.7962436260622787
0.8422189255212916
0.8417107908326823
0.7966987811308556
0.7547528256665155
0.7551659525631762
0.7542976628898975
0.7538040094821606
0.8969128599337334
0.8976006486442055
0.7957385716433002
0.8405187743985811
0.8411422879205439
0.7951862072874836
0.9686855184991023
1.010333305341662
0.9254952584813019
1.011881801922006
0.9268190696432467
0.9672029286770703
0.9700167510529939
1.014701529092015
0.9292412299922376
1.013336871562332
0.9713261862922676
0.9280665828872752
0.7499073566266069
0.7506691623000711
0.7491009694711518
0.7482608017088269
0.888999161326304
0.8902241220670657
0.7907938612026764
0.8364983870904079
0.7916550793483891
0.8355153389838208
0.8924749949994838
0.8913838197954804
0.7898814018449773
0.8333693126003532
0.8344676245521719
0.7889261193991833
0.7465098913623914
0.7473935138631649
0.8877093749372582
0.8863594396864399
0.7858536325690987
0.8284797714186498
0.8297618843305444
0.7847838047085276
0.7869062446339671
0.83221195510562
0.78793120546963
0.8310128743396673
0.8834880973094601
0.884950286166474
1.081789852681689
1.083993213626705
1.088049734158882
1.086078415606235
0.9640509867830135
1.008692520422948
0.924100814885137
0.9657071887808565
0.9226324246783584
1.006957020440461
0.9623922320208943
0.9194926586204321
1.003204928241106
0.9210974343275357
1.005128276126797
0.9605648075950598
0.7421164541534063
0.7413306190625994
0.8772153947636792
0.8788289218340234
0.7826181152359647
0.8271553131332685
0.7837005083612071
0.8258152186312149
0.8819750290426285
0.8804202774308271
0.7815447905778226
0.82309210998393
0.8244488893660102
0.7805019290066784
1.079469593448879
1.077028153799865
1.071788757476287
1.074469089948491
0.948326352826712
0.9922464910986354
0.9106559190308785
0.989821186959999
0.9505759226066334
0.9087861873553613
0.9461743416526605
0.9848245841608161
0.9050939800064778
0.987339575436635
0.9069272725703117
0.9438789274947496
0.9547951909250105
0.9946048562736769
0.9125045218712676
0.9143266130004004
0.9968850581756202
0.9526574131734736
0.9567570630077198
0.9178279718505917
1.001189023978828
0.9587482726662176
0.9161012457784649
0.9990812998813671
0.7400187477922071
0.7406205043353284
0.8755900341009929
0.8739756804520458
0.7777744916197327
0.8180352515065468
0.8191752161342521
0.77711561750646
0.7785869779379302
0.8217368402678202
0.7795053322377166
0.8204320573380784
0.8708749464240557
0.8723916800591522
0.9822963530507044
0.90333723767761
0.9417474474034563
0.8170223191393687
0.7766594500112389
0.8694616063011724
0.8992786936562676
0.8997091860549518
0.7974505103632987
0.8426696854034184
0.797102324382494
0.8430577986750796
0.7558489422475245
0.7555329527607437
0.7561153019805672
0.9003782658007345
0.9000756358879166
0.8436480967576826
0.7979795059336421
0.7977434053436822
0.843384990678526
1.105689738355518
1.105281663023634
1.104202311725045
1.104785862191717
0.9804591748950933
0.9376861131497954
0.9801113894407737
0.9373676253218856
1.024060513494225
0.7566644674924449
1.106406082133783
1.106011573548748
1.106248859140652
0.9807178404249518
0.9379355661392443
0.980914456878753
1.024917112909966
0.9381188707510205
0.9810383657857704
1.025054848149896
0.9382402297332412
0.7564948760597755
0.7566041686693774
0.9006182612919348
0.9007968880959011
0.7983578141371374
0.844082807951033
0.900915943097192
0.843849182492297
0.7981586462751484
0.7982823503768618
0.8439913683770992
0.9083582233398472
0.8821190767861202
0.8751835459201965
0.8446036656101564
0.874923566244062
0.8816030942795988
0.9086709164780796
1.016205713201737
1.066366977333994
1.025951348992416
1.073650591050154
1.025615303510029
1.065659413838157
1.016799933295047
0.9074587704366279
0.8439089620212982
0.8803398224883298
0.8737729220548169
0.8740899314103043
0.9070776568867711
0.8809758449183138
1.015375631974355
1.072521403561126
1.063952754213429
1.024078085852179
1.024493082137915
1.064828955532876
1.014639027504245
1.011555440717974
1.020021548671661
1.059463428813257
1.068297186512869
1.060694772152842
1.02059072024466
1.010524536969662
0.9042386746855714
0.8707776399403762
0.8411679856210854
0.8770502394271091
0.8779303706522069
0.8711969504728425
0.9037287514485353
0.90553571069806
0.8795808460409135
0.8727610452602034
0.8421553281094315
0.9059828553318615
0.8788237075710366
0.872390732644718
1.012748620925554
1.06294232736607
1.069934632936332
1.022708977094995
1.061891962600582
1.022216345794272
1.013630295248303
1.007956237350695
1.018127585678714
1.058071746164361
1.064751604515013
1.01748394915155
1.056652204761779
1.009140465483426
0.901654655508868
0.8693980785628911
0.8760205617188878
0.8388287061469121
0.868936397363446
0.9022215277894178
0.8750171697777973
1.006375184154304
1.053443532427278
1.062549243240705
1.014594546823623
1.015308564056758
1.055058157203188
1.005034662696646
0.8999298182744314
0.872728884418518
0.8375441029215852
0.8668754551693401
0.8673687055615671
0.8738515937876404
0.8993163843319673
0.8945510691483348
0.8621790966818519
0.833134187985621
0.8674570875221083
0.868785398843066
0.8626778274610021
0.893901846778146
1.001753900894027
1.051639754609957
1.012124007649866
1.057987591875227
1.011346869001016
1.003251794825669
1.049824049786687
0.8967252194000807
0.8714332291344957
0.8651211208404879
0.8346894874953582
0.8973686107540548
0.8702006677315345
0.8646130286140649
0.8815260368687909
0.8522110072214159
0.8235723224397601
0.8555848680957204
0.8520828648757509
0.8568747673519561
0.8814574231237209
0.8845235305071781
0.8598728070033351
0.8546544397624113
0.8252804314461071
0.8544778683289063
0.8848917118212428
0.8584572282095326
0.8908808676271944
0.8600746026682951
0.8659381181212519
0.8299812828344255
0.8915003763122037
0.8596206908333613
0.8645359859097231
0.888257009551468
0.8615005025344508
0.8282364787525582
0.8570131262262278
0.8573689558536615
0.8629399005653839
0.8877212959575522
0.8788143855916429
0.8499032053964605
0.8541785517814167
0.8220612744150935
0.8783686897334424
0.8505346662079957
0.8531888298281689
0.9096186540566753
0.8826140342031533
0.8758391485783265
0.8457502540117127
0.9093778925225171
0.8760363050887271
0.8830067132090852
1.068423039355963
1.018684186024375
1.027888556612126
1.018384578014826
1.075982068157526
1.027724011067759
1.068046248380689
1.01790522822131
1.067022304265334
1.026832261510597
1.075330141451917
1.017455018021008
1.027085753670642
1.067564290388277
0.8766347859364328
0.9102930278662394
0.8836278721577423
0.9101293963667065
0.8461486711625918
0.8765084136694894
0.8833642068610187
1.028549206459544
1.076956067197103
1.019286781330425
1.069100031648241
0.8467455560126114
0.9108391389929665
0.8771191443175355
0.8840871745603168
0.8466271982364867
0.8769221473226136
0.9106054426076969
0.8838453056642719
0.9106935682317042
0.8769821159211859
0.883986509384674
1.068732949295196
1.01898625801212
1.028283614007577
1.028364900001076
1.076757916563493
1.019143491323546
1.068949726330057
0.2508876215041323
0.2807640125890783
0.2705835265516928
0.1974204665969572
0.1965501929195398
0.2037795358136179
0.1899082554474316
0.1353701237857493
0.1196339174146689
0.1317886781169638
0.1236023034683519
0.2174243007185303
0.2034901613382882
0.2104408850767679
0.210747078689171
0.06938749071120126
0.09161040120848114
0.09251737880125206
0.07131931239854072
0.1250009171003079
0.115783317788336
0.1283351239152846
0.1120420336753297
0.1695328111374978
0.1553210564408681
0.164637548231585
0.1605323555484578
0.1554370756809663
0.1503022955936547
0.1599430382973201
0.1454640902333951
0.2580076969535139
0.2526091808153101
0.1016820889924363
0.08820578951571618
0.104342519712443
0.08503470880347616
0.1098493970704746
0.09142111100454114
0.1070646208198646
0.09468506561478932
0.191342010665346
0.1774338480921426
0.1855262615366256
0.1835418836756421
0.1390836430634339
0.1319157143858573
0.1429383844087593
0.127693195322664
0.2247459980052278
0.2262859510977789
0.2324323267689831
0.2183373507741859
0.093143781831038
0.0760172970620724
0.09453666224228477
0.07346857207892281
0.1217785377221732
0.1048534157302934
0.1186591128945522
0.1084017971070717
0.1746366508156494
0.1715731130769869
0.1799625971636969
0.1659450395327346
0.1511075084373465
0.136279335163738
0.1469430950695227
0.1407934606925478
0.2490342794361963
0.2346280987795795
0.2405182041167636
0.2433930140824354
0.09909645996905887
0.07888014732316885
0.0966570328036253
0.08191484035039191
0.1127037540692136
0.1013909955246469
0.1156372826074502
0.09800479687982515
0.06734937466663704
0.08973551233885951
0.08715693887883545
0.06500641416435926
0.2462082679731432
0.2664582229648219
0.2650169180409291
0.2679975434684902
0.06846312947301957
0.03380408640874746
0.06872537123596399
0.03259557243410911
0.06809635622836825
0.03513052357953232
0.06819163671013059
0.03681362775721502
0.07984362335436913
0.05170673910741943
0.07925305667872191
0.05331047629335244
0.0753374640127055
0.04997928004567878
0.07759536858280758
0.04795322861207237
0.06702086295828309
0.02955868994491113
0.06518706453812934
0.03121262210071009
0.08464255814403664
0.05980297394559929
0.08246295803811203
0.06243096194475795
0.068803497328653
0.04105171796958015
0.0699871016915075
0.03883144599907867
0.06295395104512493
0.02777471025477177
0.06379491210179503
0.02605157463189128
0.07996378722725198
0.05730088145125797
0.08078696251202006
0.0551096801046117
0.07325980991448733
0.0433699170400715
0.07148453744456158
0.04570283743882032
0.2018567163474858
0.2695702390314366
0.277841312052279
0.2726748436115781
0.344412449928694
0.3456113002043436
0.3434923782321212
0.1969067272692197
0.2655910873927332
0.2480834682476053
0.1989687076065876
0.2708174238442123
0.2717248067598094
0.2458345615329967
0.2644513369563347
0.06417752139199907
0.02259503605310851
0.06426450748647282
0.0218392168971365
0.06275087701579539
0.02341342923222491
0.06337604353323857
0.02455410592613248
0.06290448292050982
0.01986754911422694
0.0614073941431924
0.02092503036574299
0.2656427321472732
0.1965183132819142
0.2685464104321923
0.3398682655921583
0.3432140294929475
0.3399414589837136
0.3477965098547491
0.3502614928055623
0.3494644141659515
0.3443152518085547
0.05986650067172417
0.01884108236294116
0.06042941879968158
0.01798636678957436
0.2709183416085452
0.3503734732903739
0.3579731134642952
0.342179191976613
0.3568498728739309
0.3440632644331992
0.3467337415364657
0.3500882003777785
0.355504812568811
0.3496313424993396
0.3405775334855766
0.6067568938965079
0.7437597203110824
0.6039575667877912
0.606437601455905
0.604086874412354
0.5382968260354044
0.5411131256477811
0.5408861987295616
0.5382806814935872
0.5394404016106306
0.5388906096190192
0.5412053748371887
0.5403314310253389
0.5395005027464932
0.5399688733586
0.7442327088724091
0.5414472139064237
0.6074242019334682
0.7069320652018957
0.7079493905566463
0.6601489689174005
0.6595352555784701
0.7429778930840099
0.6039648300840491
0.7015023168804946
0.7005356225866662
0.6072497808150621
0.6045511420726895
0.7004127429239171
0.6999390800831049
0.6056802632666008
0.7063461621812469
0.7051608886388231
0.6045858818298401
0.7021195793607692
0.7033304536073234
0.6089838098120662
0.6141165713814711
0.7010370608558789
0.7060965057619196
0.5382488001810599
0.4870761352559846
0.5411578714268683
0.4881489145844073
0.4877263960472337
0.5405593301691828
0.4877243281124411
0.4869575152301545
0.5384012046233158
0.4866335365546614
0.4867874764407801
0.4246017833915603
0.4251433781712966
0.4276485485657812
0.4269828168040027
0.5392381135079498
0.4875650977700474
0.4874780555965616
0.5385995867333708
0.4866075210341415
0.4868311359907482
0.4242244394579391
0.4243739967617483
0.5413666217130281
0.4879833250015777
0.4874313401880421
0.5402408738672307
0.4870877693199203
0.4867273018553723
0.4241221231719673
0.4227152352224104
0.5396617127266171
0.4869059820964335
0.4867087546732295
0.5401864835659439
0.487639407465034
0.4873586453899022
0.4269687048830005
0.4255543532776244
0.661091027136233
0.6611157425218944
0.7111117251870712
0.7110470021245288
0.6604148961409759
0.6608112943187521
0.7447089285818941
0.4883744201616212
0.5412771433953236
0.4878390899680086
0.4270215080160061
0.4242898210817409
0.4249611198719115
0.4224211294693943
0.4251675242773337
0.4223391010742632
0.423858359544822
0.4219456645852787
0.4271787041738608
0.4247424219096381
0.5409412886307317
0.4870820523011868
0.4224261116425365
0.3232348611838969
0.3052807086077634
0.291064330422175
0.3008548288092099
0.3303677741898315
0.28861281030061
0.282664594281122
0.227940233664399
0.2228611537753875
0.1548190755085521
0.1613737591634413
0.2389696861185397
0.2433923419105583
0.1488124992255485
0.1690310931398529
0.1850499619218083
0.1945543260664374
0.1764088828553052
0.1648757438959528
0.2806535290221596
0.2510397147074684
0.1554899951747281
0.1312007232083332
0.1382017738753911
0.2831105258455085
0.3168034946642004
0.2748212668271119
0.3106132149028243
0.2605626179061058
0.2619710473534643
0.2412429440280177
0.2938732099398116
0.2416942020913912
0.2970942063249795
0.254714806190511
0.2496341943807132
0.2852610379455258
0.3383840145314213
0.2948629724263428
0.3476562986512287
0.314889875339349
0.2265655887645801
0.2377488839523738
0.2864372673477016
0.2346275334112173
0.2844884066652104
0.2269409942437092
0.2293976054681855
0.363287182058285
0.3699352939947433
0.3847051899534975
0.3730896142378365
0.3616797482418566
0.3651432914349907
0.3673458315320932
0.3803933883319507
0.3768166871413282
0.3603030245937579
0.3590816529121124
0.6005457476088207
0.6006947108691301
0.6058367497080909
0.6055820032692867
0.3899347169291975
0.6012126051196779
0.6032288606261021
0.6061307117300496
0.6035365338270866
0.6042165167482941
0.6063543364047512
0.4880043051567137
0.4886775642643733
0.4977327663247889
0.4953301822315498
0.5009397869773132
0.5050297306758775
0.4874610746799166
0.6009233807309594
0.6059977680301294
0.6052737406340331
0.490633906276652
0.4895678345258367
0.4276623312357624
0.4288544966090582
0.4320331659244824
0.4303169104874022
0.4919771971099668
0.4934833273851585
0.4417060215460291
0.4385351160118959
0.4340977990467332
0.4363230749485291
0.5103029291432781
0.396068460909896
0.4458298447882331
0.4510941490581338
0.4043073468897969
0.4581053237331676
0.4266523718359911
0.425833481651592
0.601560307030961
0.6028483006120575
0.6023978547548935
0.601957322324738
0.6062740887895026
0.6049933981433868
0.6047621396796602
0.6038582530253305
0.604528025465596
0.6062953122468997
0.6061253414909865
0.6423301090662664
0.6419434169778138
0.6426881368979627
0.6438309957578267
0.5384567550999588
0.5447127538186018
0.5471051858429083
0.6037996725420567
0.605496664742376
0.539153422423689
0.5541105868846905
0.6005429478393642
0.6016918938815675
0.6107289475626868
0.6463971288434842
0.6472663122662449
0.7890995158538304
0.7911676993694668
0.7932082345390067
0.6489776053530824
0.7917294494295133
0.6459434003057662
0.7883528163611554
0.7857190479603023
0.6432572532252882
0.7817905607348558
0.784814997976105
0.6413891745685376
0.7808196224340382
0.7777835724608829
0.6414915402983993
0.7747763885804222
0.7769324801254927
0.647689268805154
0.7745072809960307
0.7755512836971665
0.5387257536383758
0.5429298881709816
0.5501656119988655
0.6004842697019225
0.6025788537939968
0.6077469268730135
0.5397342606419206
0.5415519477502508
0.5405392776697033
0.6007344454048281
0.6011107771624706
0.7935816516912523
0.6492588355910333
0.7944278926508507
0.9440186187702579
0.7947807382726191
0.7945870291619631
0.6427745105410124
0.6876391655281772
0.6883324340456791
0.641619332963043
0.6869701958003639
0.6863429940448401
0.6419486693394535
0.6847555942683335
0.6845809692016549
0.6454408068107013
0.6852382995865501
0.6861149329736481
0.6468351182299785
0.6931312104640077
0.693697294109048
0.6476594212958193
0.6947281897733996
0.6942339352073946
0.7445003571814247
0.7898563994569726
0.7451539179542719
0.746337834337483
0.7905117779968026
0.7457696681369639
0.7481932365805247
0.7927538425568339
0.747792370349021
0.6486528463295843
0.6963583749708951
0.6959929943773521
0.6483239026425658
0.6480009753768102
0.6951802474810809
0.6955978532278242
0.7922843289877297
0.7468649511451769
0.7473472534240494
0.6454369342597731
0.6925280315840211
0.6918822839516843
0.6448842868675632
0.6443218926858623
0.6904842952400371
0.6911939146688726
0.7438005575045966
0.7874972199094541
0.7430625968424288
0.7414699876225553
0.786663807074276
0.7422798852797466
0.6437774044872232
0.6897629418562292
0.6890446050150604
0.7380471242380742
0.7828489424404226
0.7389101938853837
0.7406296575103756
0.7838010107524198
0.7397781881515868
0.6412632173192753
0.6852772209712633
0.6857702334723249
0.7371842262416877
0.7797517689439112
0.7363487556483073
0.7347940302949254
0.7788059001179582
0.7355398985500875
0.6412908003334232
0.6848887626470584
0.6846419455336432
0.7329237092910789
0.7753962624477959
0.7331405757850676
0.7341178394510312
0.7760430436562453
0.7335604859230177
0.6506886740221217
0.6895556108898824
0.6875065820801203
0.7329502200561218
0.7743834161289059
0.7333223012896134
0.7355110191148813
0.7747882633786275
0.7341221410918102
0.7485496585128533
0.7939281477259182
0.7488537576323979
0.6494756618261452
0.6966816130339044
0.6969505267226942
0.6973429729802618
0.6497963636210458
0.649650861968684
0.6971710937226262
0.7493079176720489
0.794196679421809
0.7491076412424019
0.6975019230705229
0.6497829490729544
0.6975051838031723
0.6498698653451681
0.6974572563806618
0.649880377182828
0.7496076297229778
0.7947081847760512
0.749550663637886
0.749454844839459
0.1258447943873454
0.1620584657607726
0.1249748149048368
0.156134897666881
0.149747166115062
0.1213159894124405
0.1216175383898985
0.1507302632447807
0.1503916573751617
0.117906653541188
0.1226687664734052
0.1585915923671472
0.1103966744942588
0.1469682000124471
0.1098320685301719
0.1497256838697775
0.1379285982514632
0.1065943127517699
0.1449567910710579
0.1025264690775353
0.1442217405932345
0.1464876046100682
0.1147455189279699
0.1126666849228505
0.1033237083828981
0.1410899540146358
0.1056089297030094
0.1370021452939312
0.10321464847901
0.137990025033205
0.1373002528684973
0.1039467153583664
0.1358282786638019
0.1350747749964641
0.09986689093381222
0.1005770982334668
0.1165323775388127
0.1553211342779509
0.1507371354240924
0.1173365492030055
0.1426606506994198
0.112722352441824
0.1116232652203481
0.1449806892643757
0.1094440254535982
0.151323237676124
0.1139103175547025
0.143654990563582
0.106798624957449
0.1390395783470702
0.1051215598580766
0.1406732318008522
0.1078953606880952
0.1461995580051174
0.14759060261743
0.1075590606357997
0.1361644858368011
0.1001764089363645
0.1039025174943033
0.1425361249268629
0.1353165083694174
0.1003824756972671
0.140354895221331
0.1032470568510593
0.1342519157427957
0.1347687696554687
0.09860859880639809
0.09797589438618849
0.6070895498066385
0.6576126716774585
0.6580388378609537
0.7099179961327272
0.7435792363889815
0.7096033213538142
0.6038830922087189
0.6534466947579446
0.6531519286785815
0.6571544219885903
0.6060719597257955
0.6566844562081512
0.6538168445906685
0.6043201774327912
0.6542292068442993
0.7102291405701218
0.7443760073227513
0.7104673033429532
0.6584620839696742
0.6077331987898269
0.6588439258814056
0.7074243630522579
0.7407131140574734
0.7409614902868272
0.742044108164273
0.7083854765489062
0.7418109766011926
0.6598583724232766
0.6087900180972653
0.6085198694085955
0.6079942384405704
0.6592067506596159
0.6082523383640125
0.7092157374925553
0.742768470084093
0.7088404003737651
0.6529436043727156
0.6041386186856482
0.6528503290760754
0.701042133488473
0.7340321336226131
0.7340957418031301
0.7002372066962312
0.7327193753639735
0.7330257193756581
0.6060633668612927
0.654436464715382
0.6536703344797271
0.6529153709694721
0.6051165131394656
0.6531566412147498
0.6999799102524944
0.7324445147911163
0.7311960519915423
0.7316950253684902
0.6999208230564493
0.7323760803406072
0.6561761762249194
0.6052792773603931
0.655676073163931
0.7058034865652906
0.7397397912865705
0.7394883674297803
0.7381584822933818
0.7045825208309702
0.7383928975673659
0.6546913195117023
0.6049228856884367
0.6551680274824182
0.702664906777282
0.7353871863377317
0.7354776017179174
0.7369544161714654
0.7039108908508334
0.7367702879351767
0.6111358866839304
0.6556183845429355
0.6572040377836172
0.662385270217617
0.659466609305595
0.7315735696203663
0.7021918083502178
0.7336902572427723
0.7368963377608801
0.703751057813532
0.7334131162401885
0.6095017257140204
0.661048912277454
0.6095214728320854
0.609425542119037
0.745161698205733
0.710971163740176
0.745065653882924
0.7450028400813677
0.6606279349747952
0.6090185367706376
0.6091892315066584
0.6609476787165596
0.6094492296782095
0.6093295996085967
0.710688175270086
0.7108428268141591
0.7448111569145837
0.2106344057095208
0.23332170985797
0.2165393008352731
0.2050164981582221
0.1996570610275361
0.2180067720502048
0.1786559080815296
0.1517481955001387
0.1760610295119086
0.1580218677885143
0.1813626148155248
0.184229099088539
0.2227427846032394
0.2292764030516293
0.2449673959894084
0.2361463855254357
0.2512719885444839
0.2579768203060887
0.1736113647017799
0.1712595407233519
0.1459951579833666
0.1432953714802235
0.140697436726657
0.1668847967030824
0.2049099890370939
0.1806232717948655
0.2009701219577344
0.2134202393874264
0.1896866464127801
0.2090394032374659
0.1972670394159525
0.1937347131326347
0.1723846603260482
0.1872251743537851
0.1904065376114736
0.1685470119097028
0.2676897985351867
0.2650616399969504
0.2726383583301798
0.2591347497512794
0.1268356310512002
0.1289936019404373
0.1573005499429844
0.1517539094531029
0.1227677942866654
0.1536057216885468
0.1247228648555044
0.1591214528881149
0.1334637439206705
0.160974612715394
0.1648449654249336
0.1357924010676567
0.1628711295014234
0.8220793138985253
0.7396159577047117
0.9375865511316243
0.8990491311486722
0.9750946684346762
0.9773707853363638
0.9002381103155386
0.9356740472652931
0.9395291320756626
0.979798784973832
0.9016904185646165
0.7403862091046604
0.7417384349267957
0.8665289125162385
0.8672004340262985
0.7764856469538202
0.8162398606501444
0.8682142591215443
0.7766831678985802
0.8156389769422728
0.7773866686344766
0.8157248976877253
0.8757844979677046
0.8518047373168642
0.8210356585712586
0.8499931482840383
0.8485352999013271
0.8521884515748024
0.8771047831980158
0.9275632997442261
0.9150242757045959
0.9245621922849424
0.9122005353651244
1.139042299747492
1.142968433546929
1.137575710021871
1.132320222183017
1.10006828035447
1.110025689621213
1.096679462320679
1.14674602769534
1.144029800809721
1.123681589080037
1.130407061206566
0.9303549286560431
1.053980901462527
1.121278031233544
1.112948304551598
1.033885544403949
0.9181748722324536
1.040749514446894
1.050792774236082
0.9214034066218106
1.044696688636431
1.029146744073024
1.147434604021836
1.18330632052134
1.158420455547764
1.153221867579565
1.195067115839184
1.130299024742591
1.172172266597453
1.140483183057879
1.173634245678091
1.176225416999375
1.141742404725574
1.174982286913913
1.14445333093531
1.151116368714779
1.170600262109641
1.135909014679218
1.168907688016789
1.134224635926312
1.165163116825459
1.167099345519568
1.131109092247407
1.103594070390572
1.134764799483225
1.141621839734993
1.106767065002929
1.138263448215488
1.12732842655101
1.167763672841951
1.165081637270491
1.160033540399576
1.16391425718669
1.180160398094129
1.145922401476071
1.179326268815147
1.145050650591838
1.177360459632707
1.178394940260405
1.141804191559374
1.133528837579279
1.156121538827826
1.126099264093934
1.158588203815848
1.163104868130792
1.128252373279592
1.160910835164164
1.153519789433286
1.118585668405164
1.150765965640246
1.144818392985188
1.115923634611913
1.147871554813022
1.17006975027367
1.168521157496362
1.170431121348937
1.149018020690678
1.182523645457499
1.148575604622021
1.182076540115424
1.180895108311611
1.148066447552901
1.181534510773577
1.149769838150992
1.14934981235902
1.183135038387494
1.182875284525437
1.149607421690055
1.243194299187567
1.241354681974199
1.199405744574124
1.203561808750537
1.227370145547274
1.230078584984116
1.253558405202271
1.252656620947955
1.244903341195615
1.246489188268674
1.224502601183829
1.221462341881523
1.256114785027382
1.255631445182822
1.256775768802655
1.256495171006527
1.237274387817022
1.239384279084962
1.211284670996905
1.207515607075502
1.235025123246633
1.23262629858423
1.250528920551309
1.251648097713727
1.249298653339328
1.247952230702871
1.214858041350977
1.218252618019387
1.254353639106685
1.255044792051546
1.256960767163318
0.9997663507130323
1.007739016243137
1.055148603886109
1.045782959353473
1.008567216629266
1.047804175002036
0.9981127297828554
0.9824817594742756
0.9901343141648665
1.035106181407585
1.025535725046424
1.028287589128886
0.9908085186447333
0.9803949682542141
0.985184831709962
1.033754288945548
1.039452859396645
0.9957121020301744
1.031142737774481
0.9949036076480963
0.987225574585826
0.994118086320197
1.004636977385077
1.049548624975736
1.043542682510077
1.003777278975455
0.9959210172827332
1.041314812046148
0.9917292862896961
1.036425454971532
1.045990242407165
0.9994828676147525
1.000342486538558
1.038854384920175
0.9897921802145323
0.9756098982023587
0.9857558824849423
1.02255588457575
1.028138631021441
1.019750610421538
0.9776369215199229
0.9853535052574606
1.210900829927509
1.156859580702246
1.209179478053538
1.15500660230735
1.20526549500371
1.207236771486164
1.169301998217867
1.123703710570227
1.173092870040525
1.180394625510178
1.127217690567496
1.176931686611139
1.19578938649477
1.146724098583597
1.198308891807969
1.20305060676612
1.149095156265089
1.200813678560058
1.220890175429223
1.166994977741794
1.220043393559447
1.1660360510911
1.217996242060846
1.21904645130023
1.212587470293119
1.161382254445034
1.214073116270955
1.216780554822351
1.16276719832765
1.215518037933323
1.192975851429776
1.139271307036051
1.190156423865071
1.183879854682102
1.13633394406014
1.187015289678925
1.223363868292181
1.169666719652517
1.222907347452539
1.221676548605883
1.169107478319092
1.22232636868263
1.224010575870726
1.223742808676174
1.170657424281153
1.224196242587612
1.170831986348655
1.08556497538837
0.9101280645725062
1.022498126823044
1.092935421303484
1.123411734539698
1.053550776957582
1.047084928441257
1.115326395670024
1.08941310870213
1.119409890179801
1.050305605335618
0.9729529670028917
1.014079750531252
1.023053446895049
0.9808914458042683
1.016766957299535
0.9711787750485136
0.9807898700802948
0.1816235604296046
0.1742466025858092
0.216239247749774
0.2182551393421419
0.2234442532243407
0.1822859533401469
0.1867491685474268
0.2210049727410882
0.1766036169821236
0.180767602282502
0.218870354512961
0.2163204364326841
0.1810003758622792
0.1878543867696024
0.2213772117573595
0.2252284746162949
0.1716061978231454
0.2130992662834052
0.1750379352550915
0.2158857929573114
0.1758358321624298
0.1705951076494428
0.2132870502130395
0.2141711419436683
0.1688048256144793
0.1713753262099802
0.2113360997779543
0.2117846498205972
0.1739646717604985
0.1718979574867617
0.2125728988207555
0.2137256098881714
0.1811826396417398
0.1759545843278009
0.2170224511269201
0.2203440825272434
0.1735243133834191
0.1762762499157913
0.2157128821108195
0.2142410762805868
0.2122930517758756
0.1707243862512161
0.1725635155331008
0.2144764850408962