/*--------------------------------*- C++ -*----------------------------------*\
  =========                 |
  \\      /  F ield         | OpenFOAM: The Open Source CFD Toolbox
   \\    /   O peration     | Website:  https://openfoam.org
    \\  /    A nd           | Version:  7
     \\/     M anipulation  |
\*---------------------------------------------------------------------------*/
FoamFile
{
    version     2.0;
    format      ascii;
    class       volScalarField;
    location    "0";
    object      p;
}
// * * * * * * * * * * * * * * * * * * * * * * * * * * * * * * * * * * * * * //

dimensions      [0 2 -2 0 0 0 0];

internalField   nonuniform List<scalar> 
12672
(
0.1368948194095966
0.1364410817550013
0.1377102951027195
0.1935088231830222
0.08015657878436719
0.1375090822573196
0.1927697580595946
0.08028222830353926
0.08040784928598411
0.1372431407980854
0.1913210196296328
0.1924480468541862
0.08032799447807881
0.08042278134298456
0.1908454537119651
0.135851634919946
0.08032287400341059
0.189199861651587
0.1861408650174044
0.08024868491024519
0.1885137728148523
0.1751051692281792
0.1802535390737951
0.1851546156408896
0.1816968949520824
0.1729412082624475
0.2439265874183788
0.1378603234232345
0.1937091032623435
0.137971227762822
0.08001389741401281
0.08011263448354214
0.121631718088379
0.194130920746503
0.1216477859609634
0.1380510195437152
0.1942287124540409
0.07998968152619003
0.1398894286966787
0.164654500344264
0.1214975903932223
0.1214459547786332
0.1644984780328387
0.1399857591718
0.2336277256450741
0.2324973889777738
0.2299786191634774
0.2312834840893321
0.2218326567490314
0.2198128146564391
0.2176429553192772
0.1401340192253746
0.1647840311560079
0.1215457023406899
0.1400653271345992
0.1648987389594656
0.1215803025683521
0.08355782356805738
0.08355913257646923
0.08351921637632644
0.08353725572642058
0.08355695815746593
0.0835235636461959
0.08340351807030352
0.08348572251674369
0.07724220327586087
0.0784782959283694
0.0803248557975041
0.07945997423536509
0.07584175031233828
0.08338862350282833
0.08341957349787556
0.08348536162370256
0.0834574863421457
0.1397811790218052
0.1641282829200519
0.1213041083420216
0.1213768924189298
0.1396536425495566
0.1643284295824494
0.1393463490356862
0.1639131365673044
0.1212088995332024
0.1211083368912009
0.1395116977046371
0.1636619549661823
0.1391623636854052
0.1208409507654986
0.1630812439284156
0.1209787336227941
0.1633931530781312
0.138949719807726
0.2402082698171604
0.2395910307170252
0.2407805872622384
0.2413023113892282
0.1843167352434798
0.1839988635417745
0.2204735983409024
0.1978441576103216
0.1982804760694726
0.2199406013343494
0.2209677592082491
0.1990502006291151
0.1986890775081258
0.2214139470561545
0.1832630259818674
0.1836504540906123
0.1852901161896127
0.1850860188034822
0.2225225362763633
0.2001865256724978
0.1999512134870446
0.2228188691813233
0.2425960593639306
0.242948194704813
0.2422040228121009
0.2417745580487532
0.1846004687260053
0.1848578814619654
0.2221880559248857
0.1993853079272128
0.1996796747744564
0.2218218256708925
0.1381350009173874
0.1199893952331473
0.1614749330109246
0.1202427759159692
0.1619503086340887
0.1377865969462738
0.1384400292459683
0.1206657718456905
0.1627480696072033
0.1204782204134951
0.138712572082637
0.162362511294541
0.2382046489356761
0.2389261504774757
0.2374195445985273
0.2365716401305993
0.1812913400672105
0.181858496868203
0.2187252132945492
0.1973536270359104
0.2193563575095967
0.1968300929816094
0.1828402398453646
0.1823708131449411
0.2180313661774371
0.1956148587372583
0.1962414718511734
0.217284449316118
0.2346798261440449
0.2356594927094406
0.1806741084675733
0.1799925893687378
0.2146436005182776
0.1924515551438448
0.1933367661885629
0.2136218422186607
0.215595617847056
0.1949137102806217
0.2164694453004345
0.1941691900971444
0.1784304700107797
0.17925054409663
0.08272833872947905
0.08298256555331646
0.08331001523136353
0.08315683370850201
0.136951207518172
0.1196751028591612
0.1609668008157936
0.1373955195449845
0.1603823727340249
0.1193352493911507
0.1364500650242662
0.1590359947337728
0.1184629904257027
0.1597562185083968
0.1189174202434457
0.1358824570068806
0.2285773097113188
0.2270695456983298
0.1742488824609026
0.1754558083208127
0.2113095282310105
0.1914601567915415
0.212507692951198
0.1904029672962859
0.1775348874600879
0.1765429720234349
0.2100015235522708
0.187947222779578
0.189216371893658
0.2085916051855951
0.08243911127491814
0.08204294911880045
0.08099908504420014
0.08159242516852933
0.1304473151860485
0.1147691106455345
0.1540801020183878
0.113685300092993
0.1316614848613745
0.152682932099737
0.1290436566705885
0.1109308565729707
0.149392251894192
0.1123780857720292
0.1511574964503943
0.127466480170817
0.1336782312823082
0.1157510756549744
0.1552897894657154
0.1564030132608289
0.1165624499797093
0.1327398837939434
0.1345100298542715
0.1582609226878395
0.11790782756499
0.1352382122579122
0.1573683229678058
0.1173005536627234
0.2237053227717848
0.2254499072807297
0.1729211990243229
0.1714437497956714
0.2035641290581635
0.1814002731165665
0.1832604746211004
0.2015895969687801
0.2053856658605957
0.1865195146713603
0.2070506149778202
0.1849878964413998
0.1679908908891429
0.169812046589539
0.1091903907577736
0.1474565892131657
0.1256330823406377
0.1792946783001569
0.1994241994096013
0.1659708674331771
0.1854662403244789
0.1856182355762781
0.2233023858194576
0.2003972977841574
0.2230805181292121
0.2005733809265095
0.2435174796580909
0.2432557475089676
0.2437402433318787
0.1858459818883792
0.1857436917048179
0.2008443619858547
0.2236448140936088
0.2234912182636576
0.2007242136004334
0.08326650325245281
0.08329141858359564
0.08335214960152178
0.08332262290962075
0.1402320851540627
0.1650662761500247
0.1401880165385634
0.1649903095944927
0.1216107745522475
0.2442223919942159
0.08321266506500967
0.08324338097566314
0.08322589754491344
0.1402638232714741
0.1651225578095608
0.1402866343405378
0.121657918847609
0.1651626330139302
0.1402995942106487
0.1216632491782501
0.1651863490439534
0.2440716276090752
0.2441692833183913
0.1859228120450348
0.1859767418061976
0.2238906559451776
0.2010397518999738
0.186007975382313
0.2009376519421845
0.2237640760618791
0.223844809801396
0.201001820210149
0.1585678605847323
0.1775531303723814
0.1751343526290642
0.1932962994850858
0.1749636368601291
0.1773732478053688
0.1587084662713844
0.1177264384361425
0.1003778929787741
0.09870161383082349
0.0801959996484264
0.09870822600752881
0.1003740924482258
0.1177642339681912
0.1584185404797457
0.1930377104422598
0.176935225531531
0.1745440995767746
0.174761958044314
0.1582370495210145
0.1771637753669196
0.1176657118141225
0.08024375736140926
0.100348648394763
0.09869832583783596
0.09869985128129359
0.1003631742746973
0.117609741091216
0.1173249138079525
0.09857355163646463
0.1001850923497762
0.08039442994189465
0.1002443777484397
0.09861537417473512
0.1172092050002827
0.1575761444925761
0.1733661192120994
0.1917235798170737
0.1757158365694319
0.1760653443957853
0.1737029005697547
0.1572889311555717
0.157816839080202
0.1766731007646586
0.1742901434139465
0.1921172995299822
0.1580463069320599
0.1763887700136263
0.1740176847778459
0.1174432830862719
0.1003236329868865
0.08035867669468089
0.09867623364868523
0.1002915359634634
0.09865941531460902
0.1175243266220413
0.1168835724324023
0.09849654747999541
0.1001048849237413
0.08040625700141386
0.09841678655589864
0.1000055895051633
0.1170467055842912
0.1566294463172232
0.1729798204950448
0.1753210107005784
0.1903588527964976
0.1725658333632912
0.1569873475414035
0.174893670943632
0.1166621900693511
0.09972199334303546
0.08038605707199764
0.0981575679480524
0.09829225788351521
0.09987798622890263
0.1164351110896455
0.1562523432136986
0.1738916508962374
0.1897863638252809
0.1715855714883965
0.1720933526373956
0.1744128155948149
0.1558073460609477
0.1541973544315726
0.16891837643657
0.1869881263896411
0.1711981492526619
0.1719694003757679
0.169682742610554
0.1535097376418229
0.1158233726240462
0.09952841103267904
0.09796648845155248
0.08011663205059467
0.09775439724998004
0.1161359087493022
0.09929380004164379
0.1547844869016417
0.173308687069469
0.1710089788193259
0.1878094261774279
0.1553369194764521
0.1726753829463849
0.170386801563094
0.1458646289589443
0.1586175062021278
0.1769737087409349
0.1610491201781016
0.1604575312444384
0.1628504825486366
0.1441197975841015
0.1473594033752156
0.1658910422406436
0.1635604631912071
0.1787341497096534
0.1620969021695627
0.1487297521505603
0.1644483508394286
0.1519135737258962
0.1680554702390953
0.1703397749626634
0.1841307656548415
0.1527739358678998
0.1671117211110716
0.1693953599422665
0.150986551568415
0.1671821149721648
0.1829407500201792
0.1648768975077241
0.1660487483875082
0.1683457327175674
0.1499038403787839
0.1399744860973522
0.1565624476222688
0.1590578518827199
0.1706277132248218
0.1422070132439067
0.1542351637409611
0.1567939997608969
0.1589258316793596
0.1777142094621313
0.1752897185178477
0.1938698322237555
0.1588218761869415
0.1754187892495205
0.177848091201233
0.1003702252310639
0.1178730483345006
0.09868488521889004
0.1178573327278183
0.08004147868921414
0.09869158022225959
0.1003752595280578
0.1178303835754556
0.1003801804334875
0.09870236362640362
0.08007715110901513
0.1178058754728166
0.09869316501840904
0.100377828635984
0.1756274688043637
0.1590793352973103
0.1780544849027465
0.1590076481244644
0.1940161190252584
0.1755336213970954
0.1779632149082051
0.0986837945235831
0.079959762164135
0.1179067584233024
0.1003566607156667
0.1943472378451731
0.1592019470435292
0.1758093388401615
0.1782092877506224
0.1942989297616891
0.1757073125680356
0.159133495524986
0.178126666317518
0.1591757688209489
0.1757676281293134
0.178177424344371
0.1003657869664159
0.1178896768608187
0.09868527706844056
0.09868305120977451
0.07997253559843925
0.1178991830351042
0.100360761127486
0.3473129043311448
0.3404599025742525
0.3477145874952163
0.3232419971707559
0.3224261692914275
0.3223263699420119
0.3233192043460042
0.3383747253391389
0.3395611903221045
0.339615989133157
0.3383208614524913
0.3207429547353399
0.3216171690876672
0.3214936405761613
0.3208917256685817
0.3572056216396826
0.3570994543425628
0.3560673533802887
0.3562227397961354
0.3420721742618884
0.3407918550882804
0.3408464415090307
0.3420186711968333
0.328596730097611
0.3297569189277067
0.3297733244150778
0.3285908690878871
0.3321820480461823
0.3309411237472641
0.3309663640849447
0.3321490531698619
0.318779084481487
0.3190725856325716
0.351312527992599
0.3502032855865163
0.3502315404043335
0.3512886678061006
0.347992115746329
0.349092779576766
0.3491252899024211
0.3479553837773814
0.3242193353992895
0.3252928617592357
0.3252554336762472
0.3242758306155442
0.3371323955210897
0.3358372350831556
0.3358860720728764
0.3370804126519567
0.3200978161365367
0.3197653895733497
0.3195629530695869
0.3202727467431219
0.3551252214336135
0.3543097147020602
0.3542613747111716
0.355254082994844
0.3432842376695103
0.3444376501822155
0.3444862252523548
0.3432328452278006
0.3274499176130001
0.3263518195982814
0.326330996522873
0.3274561824525651
0.3334079828505097
0.3346018072677142
0.3346465407604318
0.3333686325515574
0.3188918614995561
0.3193924172509608
0.3191615311605574
0.3191531018046649
0.3523537114644508
0.3533464483017299
0.3533457154610348
0.352337304890923
0.3468412728131036
0.3456249264572639
0.3456699399071497
0.3468002191245305
0.358136921438289
0.3580540297275412
0.3589268554757507
0.3590061708358086
0.3564464743807924
0.3503613770263959
0.3549335787245924
0.3523004207270118
0.3687318064468819
0.3687016136639162
0.3682476599148756
0.3691716303238569
0.36731751946064
0.3681881976296175
0.3677482347569641
0.367687130348669
0.3625790778773394
0.3636197512451189
0.3633786974725868
0.3628560096615415
0.3647130637533887
0.3643142791456533
0.3640778187302425
0.3649498593643709
0.3691022541666859
0.3698789568255857
0.369433413811216
0.3695527561682025
0.3597258119296953
0.3605992420836587
0.3604734300055505
0.3598220050533317
0.3668776607816633
0.366667641472974
0.3663898836241041
0.3671884709497156
0.3700000958825655
0.3701801365752836
0.3697327638654923
0.3704676721385144
0.3618264245772529
0.3613434041473177
0.3611611470094656
0.3620858039667363
0.3653019708323078
0.366121402466612
0.3658630263592484
0.365547567674112
0.3520967727353272
0.3448827181352907
0.3425323783575546
0.3486137065453579
0.3460613977476584
0.3439808901907269
0.342145117097862
0.3619201648842005
0.3561621971265533
0.3522913680106002
0.3574234038086487
0.3536352402530688
0.3526525709613172
0.3580854406183542
0.3570373413656037
0.3709731555774592
0.3713259358409358
0.3707424201204513
0.3715551476342578
0.3702321007381789
0.371035481217556
0.370462347873159
0.3707469300511659
0.371105766990785
0.3718034409536324
0.3712357028420186
0.371697312162185
0.3573198758514699
0.3637180016813941
0.356291995274433
0.3466273186412365
0.3454876175742596
0.3450792881902989
0.345461420793185
0.3428352733006335
0.3422199470961749
0.3464919616580919
0.371456827854423
0.371899970454784
0.3713564588726519
0.3719874680258535
0.3567588741348341
0.3458424262275492
0.3289723241521106
0.3366071612987593
0.3306416147380136
0.3379827807482277
0.3397394490616234
0.3343940124711532
0.332389735003388
0.3385166751919727
0.3412997073226915
0.277451660787529
0.2293784655083563
0.2672512052770609
0.2766100342662247
0.2686968451511257
0.2859835180020526
0.3009277115963356
0.3004989068400328
0.2888562343208196
0.2945785586281214
0.2925310960933022
0.3016277659715426
0.2994001011149809
0.2955138415742675
0.2973036331441693
0.2296459961724145
0.3021805563018863
0.2790116911511107
0.243198947407041
0.244418390377722
0.2642827778138473
0.2634155092299417
0.2287244726769964
0.2640945764535722
0.234661685627948
0.2318680412749201
0.2545059577815369
0.2605664186038766
0.2227645359814166
0.2286328934706635
0.2747163932675101
0.2425124910547095
0.2409664683247808
0.271338320207311
0.2359083355295326
0.2381561089425549
0.2522991534637699
0.2475625931459791
0.220545698797977
0.2125483968255957
0.2874634690397044
0.3024827444862624
0.3012952746691439
0.3168895509055739
0.317502574981806
0.2999883102164121
0.3166077562049855
0.3162992823249285
0.2901659725575143
0.3054303505984978
0.3040017099172151
0.3172454120378049
0.3156922946600141
0.3224112231807122
0.321153240808118
0.2936044084240901
0.3098006565992372
0.3088681997856664
0.291389627177269
0.3067509321814557
0.3079339559924694
0.3186970170310005
0.3200195066318838
0.3019339882699119
0.3181870854654423
0.3180408331412806
0.2987428419028337
0.3147141500492008
0.315669808090092
0.3241471181166189
0.3252518754105527
0.2964375536872697
0.3110892252217135
0.3122909467635143
0.2980553228116021
0.3137158932391552
0.3130511881399661
0.3267353552229775
0.3259608397039337
0.2657423805368627
0.2658215962176315
0.2479792110251225
0.247906170490662
0.2646426157429397
0.2652087259274588
0.2300821201980987
0.3182653559541424
0.3023822731506157
0.3186963458555213
0.3301780140300858
0.3310414763957392
0.3316543825749759
0.3315224096493242
0.3298302114198366
0.3294308764569577
0.3280424900437846
0.3288715234638793
0.3316409125525193
0.3321506116742746
0.3025579177619994
0.3191412932880909
0.3323724218398492
0.314851753936577
0.3214933457457825
0.3304761139408555
0.3238122415386506
0.312959334089264
0.3325899405254159
0.3385395073685348
0.322445682202698
0.3234956263799139
0.3382891647223712
0.3358087678839813
0.3205387017507814
0.3191149344051987
0.3407442240175575
0.3425453181124689
0.3284870855258825
0.3261848148527245
0.3308779975492941
0.3345706836009014
0.31716791923835
0.3186631937947137
0.3502979511899855
0.3489248613584282
0.3455148078424513
0.3186098259353683
0.3169377293832852
0.3207095478954165
0.319150698602137
0.3253169070910188
0.3241679693499824
0.3347082372966598
0.3283072835649222
0.333584763886519
0.3260778871506676
0.3276779421945854
0.3300427626273629
0.317676512052773
0.3113254296957493
0.3159752618439886
0.3098829753981578
0.3141094334087681
0.3454553400037161
0.3369744757330487
0.3346320941746823
0.3391823755847821
0.3366140159963936
0.3444616764022836
0.3424008211061098
0.3216256759438696
0.3153727224821571
0.3069291298437029
0.3131840318284993
0.323572640890398
0.3196040246529788
0.3175212487723284
0.3090011569405927
0.3110478362199986
0.3254488375322439
0.3272457856146864
0.2754172148549432
0.2769089625682454
0.2911121207054317
0.290692037780227
0.3049771143006487
0.279646931949133
0.2851294327065911
0.2917649949420227
0.2860038761915049
0.287675731738234
0.2922989831585286
0.2991841974697603
0.2974097032766082
0.2855201083729447
0.2876645932292945
0.2833362688219111
0.2810806730144343
0.3008725036104675
0.2783195360941021
0.2914562163104761
0.2901925937547773
0.2936551388076459
0.2955690912500076
0.3105233125826059
0.3086403882300875
0.3046833704358483
0.3066949441251496
0.2917096427839501
0.2897259882013266
0.2966165849740117
0.2986698053756655
0.3026538114017569
0.3006657955297543
0.278913864427645
0.3030678316464643
0.2945438954939505
0.2924405659842554
0.3012859178496689
0.290400942757068
0.3123253702374382
0.3140527573127067
0.280894406260945
0.2841931069325477
0.2831612159916738
0.282063882261993
0.2920585944163895
0.2896365742334384
0.2890360068565629
0.2868590552587766
0.2883962945754312
0.2924734141200859
0.292603595081645
0.2615532211856317
0.2601549691184775
0.247654950017773
0.2454427341281021
0.2844237186776349
0.2712154380622323
0.26901986609695
0.2625901579000326
0.2604161925796947
0.2810539045373643
0.2644740214160383
0.2721836642433071
0.2667029707740983
0.2558880075869927
0.2699717788443088
0.2714545243895561
0.2119838686089454
0.2133549438599482
0.2146508553468427
0.2741612868405884
0.2137324338595525
0.2691698343961001
0.2114368175352655
0.2094887835209029
0.2641015663603446
0.2060019032320526
0.2087169338198115
0.2570890772182907
0.2049251650731181
0.2011246636172183
0.2517542714818385
0.194193554289769
0.1996005089673165
0.2406794128073203
0.1919908533724268
0.1841193837191016
0.2827758431567363
0.2733634980075142
0.2667367851617091
0.2738402756944917
0.2646960582243465
0.2581636006183249
0.2792452848780774
0.2754072588497938
0.2773733945663413
0.2704409661470237
0.2686205319979382
0.2148901925447111
0.2745454030362559
0.2154130127224104
0.1380926589985668
0.2156599675183384
0.215526732008929
0.2628689507426246
0.2443560659537469
0.2455590391792951
0.2586660148082334
0.2430728089023229
0.2416937580912437
0.2497659114234551
0.2311570225142665
0.2332286917594966
0.2431069837275448
0.2289579324189617
0.226589051319689
0.2707345755013866
0.2519521340624137
0.2526230717024709
0.2721048761204128
0.2538158083941043
0.2532466684935644
0.2315790744173389
0.212481731368407
0.2321630310576346
0.2331849617310276
0.2129402880530557
0.2326941758218847
0.2347163629554566
0.2143786405805121
0.2343887976538392
0.273713925954073
0.2556114479941225
0.2552250372737385
0.2732196731419004
0.2726856150501082
0.2543282922451397
0.2547967680656592
0.2140718045428739
0.2336238981203209
0.2340273367393958
0.2683022953588431
0.2512359414641648
0.2504579562015303
0.2673555411932819
0.2663405690339983
0.2487018971184557
0.2496138418045245
0.2309556083158134
0.2108442764231623
0.2302681582239104
0.2287212781363851
0.2101920596714917
0.2295310196828209
0.2652580547548463
0.2477265135762462
0.2466783043101777
0.2248248106750812
0.2069779206424586
0.225919526506835
0.227860606887514
0.2078884509668356
0.2269186986355157
0.2554124415084617
0.2386445139282816
0.24022439064318
0.2236636544346484
0.2037716508524885
0.2223890809632493
0.219549763359658
0.2024933095436443
0.2210371911901153
0.2536404662264228
0.236962374609147
0.2351518014693133
0.2123500653377402
0.1961453828434139
0.2143904887185198
0.2179724755999843
0.1979704731566632
0.2162329180556388
0.2381272627237498
0.2213789470192404
0.22408067308684
0.2101861662471241
0.1896376541439035
0.2077797590901138
0.2023868298999058
0.1869638893502298
0.2052304190175636
0.2349999040644632
0.2150952784042371
0.2352451625476288
0.2748652863486936
0.2559469787176628
0.2562319324963437
0.2566839101244028
0.2753954346392852
0.2751445032934506
0.2564757065333206
0.2356237540337242
0.2152696021004879
0.2354515095622022
0.2570224152643926
0.2758234347610552
0.2569597304341947
0.2757388066854611
0.2568479660224592
0.2755984418719931
0.235905959251282
0.2156082407910117
0.2358509133199812
0.2357580414385484
0.3563079420880653
0.3548122973890682
0.3553256335810484
0.354110225532534
0.3531948538917251
0.3539641615553153
0.3546370912290933
0.3538215703348491
0.3570688039273409
0.3583635671371145
0.3573779789265754
0.3558622799545784
0.3673916364542962
0.3650321192455735
0.3669448123588674
0.3653483843980411
0.3666652022418737
0.3678862691472984
0.365993027119549
0.3683471176930018
0.3588443876239794
0.3580428466649415
0.3592122536073552
0.3599599746736218
0.3664243634532284
0.3650918982662839
0.3666590239612137
0.3650015749164873
0.3660731842525761
0.3642279479477373
0.3646830773447701
0.3656189667165384
0.3671088922896959
0.3673869899599545
0.3689646837999883
0.3687039805117626
0.3615778238591123
0.3605397906543574
0.3600058264636853
0.3623298882009878
0.3594839149222345
0.3610589238846003
0.3605851259799743
0.3598685250078605
0.3638887085060654
0.3614017464885891
0.363139818100855
0.3623601675708685
0.3645316472629483
0.3637045475588312
0.3651037468412053
0.3631036105496834
0.3694562490297215
0.3671442534437954
0.367279651054316
0.3692504246967704
0.3682175805487924
0.3700052475875659
0.3697286339450069
0.3677504836334623
0.3674984270458991
0.3691174348636433
0.3673704174360777
0.3691643233843085
0.368603079130121
0.3684750447655781
0.3701995318052423
0.3703253218003067
0.278252307560593
0.260377906916142
0.2610897625445043
0.2466312910583159
0.2290657737349069
0.246276730489257
0.2657155813521627
0.2509839157067771
0.249543416356638
0.259607787596621
0.2757059710219585
0.2587855672429707
0.2523399213263385
0.270058691010806
0.2536005023796197
0.2469453178899291
0.2298836293312354
0.2472132617032381
0.2617608871024184
0.2796920282447402
0.2623647489317023
0.2438314135909808
0.2263655237161818
0.2269335203999615
0.2279153668498221
0.2449509756370016
0.2274403812318265
0.2638753845835068
0.2818483474728613
0.2813826309700792
0.2803025471999837
0.2629177492193649
0.2808636225729281
0.2458765446176772
0.2283346205670426
0.2454380231106803
0.2479993359543144
0.2623737714412684
0.2463555612738305
0.2333073469340172
0.2186096589543053
0.2173339622509688
0.2302952214011018
0.2159827855706254
0.2144812336415911
0.2566394169627353
0.2386206803120118
0.2407449570968068
0.2446000971086236
0.2586432630720439
0.2427271319264313
0.2248908115731317
0.2071351538575976
0.2092347668353557
0.2128879906853517
0.2268053375640102
0.2111164072876974
0.2578840554704209
0.2736635054589888
0.2569257003521417
0.2417715656117043
0.2257641973756125
0.2250923576328298
0.2235890801189007
0.2400983585716452
0.2243811410616721
0.2547880847119703
0.272537653107137
0.2558884608170087
0.2370762300734048
0.2197586306635503
0.2208456625632234
0.2227532592694331
0.2391637006670112
0.2218251182167955
0.2499561932083778
0.2363765514106271
0.2339627945742607
0.2286898379379674
0.2314268323642932
0.2048949927497157
0.2180541067187859
0.2023864486521682
0.1966979680047584
0.2154757165785869
0.1997062248756176
0.2835077301961175
0.2656139756444988
0.283354706206792
0.2836088783395648
0.2305547711906104
0.2477937298661316
0.2304881609855248
0.2303865844936017
0.2649452177601177
0.2822501205289615
0.2825828183885326
0.2654328427773377
0.2831395589780698
0.282875321097017
0.2474447629008805
0.2476376021333582
0.230251847350147
0.323007108266309
0.3214585975255967
0.3220540995170543
0.3240178622332173
0.3250844206060112
0.3245885795287896
0.3377766156025188
0.3395237244138526
0.3389890423750904
0.3370526832438664
0.3365590965124202
0.3353325427732199
0.3211818120949958
0.3203881411731105
0.3197037694602085
0.3196977521311016
0.3189554753669993
0.3183244901670452
0.3401851942672628
0.3413745085731585
0.3419594970055964
0.3431582381141783
0.3443467956998144
0.3437054759297956
0.3280439139364864
0.3296765120512922
0.329235561316046
0.3257157361145084
0.3273248787081701
0.3268694606454826
0.3304384473883554
0.3316555878036331
0.3321007192208268
0.3341076885194679
0.3328788152487522
0.3333299851599403
0.3181670554331551
0.3178061506304829
0.3174241738041538
0.3183391632721765
0.3510888068036859
0.3500174442378737
0.3492400152828039
0.352317218341728
0.3531025509075472
0.3513227546515874
0.3521208438630016
0.3481703393013533
0.3478057938160375
0.3470762990868566
0.3448432432278458
0.3466711458268688
0.3459708391914405
0.1650803775348304
0.2153004606080267
0.1211823658436971
0.1398932099499284
0.10238776441877
0.1049480526413392
0.1427486361081786
0.1185122115229377
0.1235796212700831
0.1072610332881447
0.145213715615387
0.2127854797607905
0.2100704682475251
0.1583873072184457
0.1611982002202022
0.1970695555458792
0.1770201213403931
0.1637112797793149
0.1944846894228425
0.1716504125662646
0.1916698918210374
0.1744396212095927
0.1375211022053908
0.1514489384144141
0.1679528983440942
0.1486969089902879
0.1516486659552554
0.154301957761307
0.1346602468962979
0.1340969577784195
0.1261053935588766
0.1328110823650414
0.1223743134800579
0.0590433323794733
0.05875029775853727
0.05913381320591729
0.05931391281227837
0.05505373237699963
0.05754760252818227
0.05380204389902629
0.05837159607815042
0.05864798146997785
0.05916830681650712
0.05933418450613026
0.135087447343952
0.07973215373714984
0.05901277592620102
0.05807379468120898
0.0744609394468386
0.1289562244350682
0.07745220970706947
0.07946502618050481
0.1311379684599936
0.07810170350707817
0.07308942831371561
0.05828909143987251
0.03547472481869333
0.03746884802492602
0.03795866039981287
-0.0001574160576452119
0.03738598234304418
0.03714323345167899
0.0589506204527621
0.03696440342229431
0.03662454182171268
0.05884887140444246
0.03679700337068439
0.03829143697542293
0.03807377899283872
0.03730942572383253
0.05920850297694304
0.03748283321652119
0.05927340558442886
0.03778595940552654
0.03763378944820444
0.03522682124300899
0.0560601036211209
0.03603951923312661
0.03719454209764381
0.05689082938533013
0.03671800126461321
0.03413816368645552
0.03617283657536634
0.03661656925893466
0.03730406291502414
0.0367737509174875
0.03603134806998926
0.05845746349117262
0.03616750325506553
0.05855255625005356
0.03646634983998898
0.03630894262603474
0.03825245217767909
0.03777144935579353
0.03810771151809181
0.05926878625133416
0.03806974817860229
0.03790285133964191
0.05931888147274943
0.0380124514677105
0.03807057767316876
0.05878717956879246
0.03799725333800524
0.03757976990225292
0.05847855949378028
0.03781825343350358
0.03576512647130578
0.03605417948091999
0.03570188672987367
0.05809617283930586
0.03562541325576719
0.05815090185943572
0.03570725488917324
0.03591186107569272
0.05821715829188676
0.03580126610735842
0.05798934341706243
0.05804916735363039
0.03550913855518455
0.03555976385450031
0.05801443870982946
-0.001677115044272404
-0.001330633811118801
0.0004566708961241812
0.0009185181446059599
0.0006644520631186249
0.0003824976221401848
-0.004007802196503323
-0.003783565574665223
-0.002024315858088601
-0.002354040086521513
0.0009269244683128974
0.001122994168596497
-0.00467836278727168
-0.004547377861839811
-0.004865598959239524
-0.004784761351526357
-0.0006237323645508147
-0.000971859656106021
0.001328277184457876
0.001174887165190977
-0.0002706013344915361
5.85579173507217e-05
-0.003268372893576995
-0.003534286360920904
-0.002978886239288383
-0.002677022181141544
0.001337192200372818
0.001279855171976377
-0.004212183066992357
-0.00439096626939946
-0.004919969154548526
0.1154211829097015
0.09715158307865976
0.07996314282654797
0.09866642687311783
0.09747139965025033
0.09900940389891885
0.1149940797299672
0.1090388637292891
0.09079998456024121
0.07566280582232433
0.09223743616537622
0.09358391842480901
0.09212649559039864
0.1076023231101431
0.1103313563600931
0.09568012694225839
0.07661803593053321
0.09420585287313996
0.09470833782478259
0.09325575078416663
0.1113966590989491
0.1138736331843063
0.09674244648835303
0.07909431370332955
0.0982573966604703
0.09627390239896819
0.1144547435759166
0.09776559034454388
0.1131512493028584
0.09649106280796818
0.07866716263085613
0.09502033173176305
0.09569271709580836
0.09718623590829199
0.1123632990207685
0.1039453423468996
0.08924845330708554
0.09069104848057553
0.07138912296462933
0.08884047598544653
0.1058758927959991
0.08741545008753417
0.01781592762797581
0.03764954273381532
0.01808071450127676
0.03779890641133494
0.0185888940069045
0.01833386664771585
0.01784920227225799
0.03623607676607786
0.01849512997574785
0.01927712948001341
0.03691238379465318
0.01895891413087622
0.01939914823703422
0.03824633054760491
0.01923533678323957
0.01882223477210866
0.03819093581815908
0.01904620374981097
0.01600208624080202
0.03631328394459583
0.01618524296181532
0.03645388928727317
0.01659463175606639
0.01637934853908479
0.01756089581020678
0.03711847490419209
0.01730203849318623
0.01681707322937788
0.03695228913689103
0.01705839815040092
0.01951075860144673
0.03818541776924311
0.01957462868189511
0.01947300524555488
0.03800501061487747
0.0195633163523044
0.01546295455651145
0.03584798045558315
0.01557069277908126
0.01584136978826884
0.03594064427034931
0.0156945154840388
0.01531207215889833
0.01537846116805063
0.03565190368224823
0.01526863836325448
0.03561954271350335
0.04835975660633772
0.1174934720162577
0.06708999477536527
0.05231697827613518
0.03285868435253726
0.07410260741382928
0.06972581586992892
0.02928742352896455
0.05049066593580408
0.03120457976707503
0.0721384578172751
0.101645614726249
0.08421108875050769
0.06945776972032829
0.08279609515102919
0.08673198923085108
0.09906584253090012
0.08530318341041623
0.3518030766232947
0.3525560418968847
0.3503671973329528
0.349532735245852
0.3475178483971572
0.3509104447906117
0.3498716004301672
0.3485824433826619
0.3571617422179323
0.3562967428819437
0.3537878232720656
0.3546535618811809
0.355307039090178