/*--------------------------------*- C++ -*----------------------------------*\
  =========                 |
  \\      /  F ield         | OpenFOAM: The Open Source CFD Toolbox
   \\    /   O peration     | Website:  https://openfoam.org
    \\  /    A nd           | Version:  7
     \\/     M anipulation  |
\*---------------------------------------------------------------------------*/
FoamFile
{
    version     2.0;
    format      ascii;
    class       surfaceScalarField;
    location    "0";
    object      phi;
}
// * * * * * * * * * * * * * * * * * * * * * * * * * * * * * * * * * * * * * //

dimensions      [0 3 -1 0 0 0 0];

internalField   nonuniform List<scalar> 
36631
(
-0.0003872815915881379
0.0003296599388714878
-0.0012156202058969
-0.00124771609870271
-0.001247754204574207
-0.0012149119238169
0.001153796759136825
0.001113993621777877
0.001115046725531979
0.001152911099554363
0.004693928060582001
-0.004246052180877596
-0.0004497041671674832
-0.001212385052549258
-0.001245239198300081
-0.00124522508602885
-0.001213199705237476
0.001148646223387229
0.001110948450394987
0.001109734069429159
0.001149675412798565
0.004687975852926053
-0.00422850839126138
-0.0002255111002394379
0.0001775900489048983
0.001162149705638154
0.001124190678953194
0.001123363631998137
0.001162785644242414
-0.001220641774627333
-0.001253775786788867
-0.001253545093095714
-0.001221114731175207
0.004709787742318419
-0.004285278966128655
4.576489225965392e-05
-0.000851021488925296
-0.001131303881531066
-5.184905433428589e-05
0.001071253289854758
0.000917156242676025
4.061709161146245e-05
0.001241607875307131
0.001308648738654273
-4.620473101379678e-05
-0.001380306926352431
-0.001164362048206519
-0.000275982829136406
0.001160248526697056
0.001120712363478008
0.001121550588971917
0.001159581139973294
-0.001219543478280565
-0.001251833053255283
-0.001251959996254925
-0.001219014819566639
0.004704707947779223
-0.004273977490663376
-7.115628079659966e-05
6.452569285761638e-05
-0.0008495215415873585
-0.001127664793079725
0.001067766971838661
0.0009160499507672457
-6.315539246366212e-05
5.750260416316047e-05
0.001237996272489851
0.001305837181138745
-0.001376942687363462
-0.001161237977963881
-8.869303112345292e-05
0.001300790515613442
0.001231328197374937
8.22679929883214e-05
-0.001371069370271598
-0.001154624304580598
0.001156531648101986
0.001118547279494762
0.001157293294821587
0.001117624677969329
-0.001217115797456335
-0.001249979657476261
-0.001249908939204303
-0.001217727372992289
0.004699478034688689
-0.004261066058246069
-9.992520641894677e-05
-0.001121106250164325
9.231706620817739e-05
-0.0008469785276549488
0.00106158805407207
0.0009141048639577876
-0.0008489282905575404
-0.001126167040002148
-7.795328495602774e-05
0.001066430403651243
0.0009154619310582975
0.001236439851801769
-6.946908620822893e-05
0.001304615860858955
-0.001375772213481264
-0.001158969805444726
0.001299137752186574
0.001229145557951013
-9.608852796058179e-05
-0.001369471040560779
-0.001151416772746419
-0.001119002144335619
-0.0008462063318279741
-0.0001078207422089866
0.001059701779165428
0.0009134022327790846
-0.001210453243314835
-0.001242421556688718
-0.001242411634605426
-0.001209523991768117
0.001144852218586511
0.001104766703760092
0.001106165971437918
0.001143663248624559
-0.0005179481014425418
0.004681642127988107
-0.00420803590976399
-0.0001187560295153801
0.00122213542896653
0.0001111541913376026
0.001294079345529807
-0.001363159553330576
-0.001145453382988699
-0.0001337312158858237
-0.0008437113074282596
0.0001247006113098276
-0.001112027711390463
0.001053005144547655
0.0009117644788467686
-0.0001749728002155033
-0.001099818697230658
0.0001638438032694303
-0.0008397662243620035
0.001041499220987489
0.0009092146975517635
0.001219183065276826
0.001291941911639384
-0.0001277347621757124
-0.001361069911023273
-0.001141076333237753
-0.0008427640791867387
-0.001109165145529076
-0.0001432500399800477
0.001050431727878524
0.0009110163209251715
-0.0002971937260244556
-0.00106142523305677
0.0002780555452710886
-0.0008311018543283
0.001005564407085266
0.0009061008610552162
0.0002274147368193506
-0.0008342806026375005
-0.001078364128697319
-0.0002431818011537835
0.001021578157667001
0.0009068336380030192
-0.001095992478407418
-0.0008386913038785752
-0.0001869473084221957
0.001038064378001294
0.0009085939124858731
-0.000835354680189405
0.0002131430657087383
-0.00108352165237508
0.001026217834620057
0.0009069301690477931
-0.001054265066135883
-0.0008303884674627621
-0.0003191045020270061
0.0009990763208895027
0.0009074879887048845
-1.497368187568977e-05
-0.0008989494541534486
1.191810329997839e-05
0.0009020050327297281
0.0001316260187331429
0.001165172848812792
0.00112573255385455
0.001164404521555508
0.001126639767790127
-0.001222551772569749
-0.001255147318688389
-0.001222072044878174
-0.001255540108097624
0.00471465881581774
-0.0042953332334391
-0.0008515256691091717
-0.001132421848733111
3.974957862990701e-05
0.001072286405555415
0.0009176764259095427
8.70580064111092e-05
-0.001224037989786339
-0.001257290272695273
-0.001223469486499797
-0.00125676198921579
0.001128989939116417
0.001167904104235658
0.001166735228088295
0.001128006650431701
0.004718005666112612
-0.004303513837480173
1.991561389657346e-05
0.001246088912750024
0.001312109662116004
-2.504750987365857e-05
-0.001384054478793065
-0.001169012200096021
0.001242726562927217
0.001309559366224499
3.54303369029906e-05
-0.001381170439229061
-0.001165928735223328
1.417450867137848e-05
0.001632177777705896
-1.778237123136088e-05
-0.001628569915146473
2.241371790200823e-05
-0.001135845597116261
-0.0008534412166046002
-2.807704382818689e-05
0.001075927326606714
0.0009190228130413153
0.001633242266256105
1.060367354358135e-05
-0.00162967143113292
0.001130164984468203
0.001169579190050588
0.001170927380034654
0.001130953594503174
-0.00122495667625198
-0.001258328243611057
-0.00125878581788398
-0.001225518500698403
4.334897852169147e-05
0.00471763158729523
-0.004307958470033461
1.671931989387017e-05
-0.001137126229068463
-0.0008543739625144367
0.001077438430885984
0.0009197561586972807
0.001247471198826123
0.001313065413713353
1.493267780753661e-05
-0.001385072026100939
-0.001170481650358423
-0.00162673710325931
0.001860872339074136
6.309529691113284e-05
-7.069935905192634e-05
0.001063071779732181
-0.001289602953407726
-4.576323647872251e-05
-0.001862398755158131
4.036336777369799e-05
0.001087016671087257
0.0007807819527751788
-3.281145874944175e-05
0.001627965514856394
2.894020988194493e-05
-0.001624094265988956
-3.676921612965227e-05
-0.001622779345893804
-5.128378951076644e-05
0.001086137169261615
0.0007802557228291619
5.564562436294774e-05
0.001063848376112431
-0.001290831943891032
-8.772593296937116e-05
8.204475488727066e-05
-0.0008774542212621568
0.0008831353993435341
-9.374512842562638e-05
-0.000875199309758362
0.0008812185052118835
0.0001001497857973223
-0.0001069710881120315
-0.000870220166401521
0.0008770414687157711
-0.0008727881604964187
0.000879192817861916
-0.0001494276378185422
0.000139583142659217
-0.0008544395088866494
0.0008642840040458057
-0.0001601151131905754
-0.0008505777251496227
0.0008612652005177986
-0.0008464129123413449
0.0008580953761067226
-0.0001717975769592907
-4.837000719965134e-05
0.001865147971717087
-0.001630125006032021
4.121363828106756e-05
0.001065271273293606
-0.001293137870060067
-0.00186380810405404
3.50844190209897e-05
0.001087821670070347
0.0007812653827306568
0.001629079037561837
2.515586674467467e-05
-0.001625294694429453
0.001064496349634012
-0.001291949798985048
0.001088571445718454
2.989828768498896e-05
0.0007817626573215338
2.143781480586499e-05
-0.001626406954105709
5.220027939180052e-05
-5.649092002486015e-05
0.001636055666982407
-0.00163176502634888
4.805634694142179e-05
0.001638215868253808
-0.001634071935808033
-4.407347637560616e-05
4.021025874255026e-05
0.001642020347416997
-0.001638157129784824
0.001640190950000273
-0.001636208079443948
-6.097868617763342e-05
0.00163374063825522
-0.001629252872106934
-6.564512285593682e-05
0.001631222878720046
-0.001626556442046569
7.055178421938059e-05
-7.567573992598189e-05
0.001625634749369593
-0.001620510793663602
0.001628540377732565
-0.0016236337163777
0.0001581386245284185
-0.0001693920719916189
-0.001560112276206646
0.001571365723669578
0.000147695428979035
-0.001567220409528117
0.001577663605073455
-0.0001381282285615508
0.000129190882368901
-0.001580092782863481
0.001589030129055811
-0.001573912037205842
0.001583479237616223
-0.001552387947292961
0.001564782052105765
-0.0001817861768088397
-2.930666151634736e-05
2.584864164385137e-05
0.001647825151619912
-0.001644367131746903
-3.284040481880927e-05
0.001646575658289028
-0.001643041914991716
3.647720888994086e-05
0.001643680503855265
-0.001639947454007955
0.001645204387153806
-0.001641567583092553
-0.00162539260575756
-7.85342613087243e-05
0.001859193236736343
0.001062380534713729
-0.001288346263442321
-0.001857351140965301
5.696243148588902e-05
-6.279551149010994e-05
0.001084094840643699
0.0007790893803246216
4.084049562817188e-05
0.001623900606001011
-4.502188041448864e-05
-0.001619719221214721
-0.001621321326274646
-8.656547515627086e-05
0.001061486370740571
-0.001286905691885458
0.001085163869580405
0.0007797080091126664
-0.001620486181086564
9.488982974139955e-05
0.001853113999082157
-0.0001034577448453731
0.001059636276333536
-0.001283696179224984
-0.001855324581594897
-6.882883588047478e-05
0.001082915897205229
0.000778442008772511
-4.93467110430799e-05
0.001622275831363702
-0.001617951000741084
-5.380849759300372e-05
-0.001616024394553133
0.00106068661675799
-0.001285411012435981
-7.505438857910261e-05
0.001081629778083659
0.0007777097736795374
-0.001618553573541486
0.001850697490863944
-0.0001123884603176959
-0.001281919175920241
0.001058705974059158
5.844763782788301e-05
0.001616440381750785
-6.325457393680608e-05
-0.001611633445641962
8.152705265270618e-05
-0.001848079788117384
0.001078695451327466
-8.823483628453871e-05
0.000776092120422294
-0.00161391443332343
0.00108022119535234
0.0007769489595671458
-0.0001216166623105459
-0.001279892658359931
0.001057481453960217
-4.933330534854917e-05
4.541161855728131e-05
-0.0008908893483705236
0.0008948110351618075
-0.0008896292100062851
-5.341191660379058e-05
0.0008937078212566253
4.163104494479566e-05
-0.0008920473087866289
0.0008958278823955888
-0.0008931029306071655
3.797716737885153e-05
0.000896756808168744
-4.069241555362657e-05
0.001086482336131558
3.712597662132953e-05
0.001085313779239705
-4.437641671809875e-05
-0.001513673930855882
-8.367776653987574e-05
7.70304844359206e-05
0.0006294318645825219
0.0001108668563843076
0.001511534537158308
-0.001082665744081087
-0.0001199950154226467
-0.001171049912134876
0.0007513092780981502
0.0001020600350778078
-0.001084047789937698
-0.001172824689780875
0.0007520053701509629
-9.05813630243898e-05
0.0006288089236164223
-0.001515645510109243
7.062769629528619e-05
0.0006300009894509357
-9.358974352954452e-05
0.001517444515952224
8.538318241389395e-05
-0.001175981234296478
0.0007532256155848286
-0.001174484716021299
0.0007526232766775019
6.443478764815934e-05
0.0006305344939739983
4.820301131543441e-05
-5.217330408675438e-05
-2.705395516993348e-05
0.001090208877806615
2.386174844499744e-05
0.001089402346054531
-3.031913196934686e-05
-0.001521960807799557
4.695949749565686e-05
0.0008957423732594595
-5.262450468417494e-05
0.0006318834417287835
-6.222501755785648e-05
0.001523208318692183
5.488013451603333e-05
-0.00118087500961969
0.000755220451772084
-6.973110329017241e-05
-0.001179802078891848
0.000754749702860077
0.0008964713171858618
4.141866613181519e-05
0.0006322778328563896
2.768580009753295e-05
-3.102120979554544e-05
0.0008990777829511737
2.44193502490561e-05
0.0008997377670268936
-3.44454398923368e-05
-0.0008949416050662434
0.000898365835160311
-0.0008940659034476072
0.0008975976309251621
3.367536840356588e-05
0.001087545448850428
0.001088520106008044
-0.001520590785770232
-5.844427116779302e-05
0.0006314689471752154
7.745104131720106e-05
0.001519092696846122
-0.001177374778758694
0.0007537596718493883
-0.001178630378763343
0.0007542796370140772
0.0006310173098614554
-0.001609086852982841
0.001838861470263504
-0.0001518927463876384
0.0001413207301771064
-0.001272981832656925
0.001053779231586599
7.899773995797327e-05
0.001606245988826101
-8.473759236355072e-05
-0.001600506136420519
0.000110197519049656
-0.001835313537334293
0.001071239895629753
-0.0001182035018399178
0.0007720796244953867
7.350609471675004e-05
-0.001603595207754616
0.0001025379695760163
0.001073311995725459
0.0007732090239992834
-0.0001629027577433887
-0.001270228544114698
0.001052171006939811
-0.001611711893035245
0.0001312882902440248
0.001842172732584449
-0.001275426990449585
0.001054998590825962
-6.82782691437829e-05
0.001614174787936523
-0.001609151092734502
-0.001845235483983998
-9.52438171311323e-05
0.001077034911770964
0.0007752095530521504
-0.001606484067476706
-0.001277798955889347
0.001056409887754148
0.001075247176841862
0.0007742197081719724
5.766644295897674e-05
-6.210170557652296e-05
-0.0008867651651522322
0.0008912004277703969
-0.0008882552439870334
0.0008925097703356396
-6.673406451128642e-05
-0.0008851494588865326
0.0008897818178172738
-0.0008834150419152393
-7.15806578550619e-05
0.0008882616352557046
6.516162001755148e-05
0.001075977633987442
-6.989935838080745e-05
6.063455999514139e-05
0.001077839055742367
9.778284777794524e-05
-0.001506687342106102
-0.0001052885293481914
0.0006274278585190568
0.001509203279266482
-0.0001295318881097977
-0.001081178685633508
-0.001169089154188764
0.0007506014332333249
0.0006281495200168821
-0.001079564658862158
-0.0001394547822702083
-0.00116700474517266
0.0007498049560748254
-5.631707796410245e-05
-0.001503961878538003
-0.0001131454418466269
0.000626669332141201
0.0001498688244872192
0.001501041823246556
-0.0001607499567611591
-0.00116229019757496
0.0007481071405871389
-0.001164712455086709
0.0007490036744922407
-0.0001213679822732458
0.0006258493217452418
7.667616411495418e-05
-0.0008795728751968635
0.0008849414659661017
-0.00088155485341967
0.000886650359673497
-7.489270832496289e-05
0.001074000265679733
-0.001069006915737516
0.001071877165135815
-8.014434768851185e-05
-0.001066625525776278
-0.001490963419333128
-0.0001487800685354109
0.0001391334727243666
0.0006231557938770898
0.0001970848431037455
0.001487145733497056
-0.001067224784123341
-0.0002105905221619787
-0.001150594001799775
0.000744178731484101
0.0001842887036832571
-0.001069631088598248
-0.001153795519951748
0.0007452593286254485
-0.0001589886328181571
0.0006221549880063045
0.0001300233150784977
-0.001494553186444451
0.0006240904688845454
0.001497900349794838
-0.0001722316213517294
-0.001159637167997207
0.0007472187484635407
0.0006250008291676998
-0.001156846876373024
0.000746227937380233
8.570973940174621e-05
-0.001061341437588173
-9.159308594508411e-05
-0.001064065696892947
9.281405687492858e-05
-9.917829812845591e-05
-0.001605546483361253
0.001611910724614772
8.677420089397484e-05
-0.001609666120591904
0.00161570597656835
-8.109253648927326e-05
0.001622553163437311
-0.001617136366878054
0.001619224115129784
-0.001613542450731279
0.0001745707286305756
0.001827412893291626
-0.001599981156513276
-0.0001867730454721182
-0.001264215825852308
0.00104898640591557
0.001603232335183488
-9.079898165086831e-05
-0.00159717094590019
-0.001831492360941393
-0.0001266548021074314
0.0007709367454609585
-0.001267392504683393
0.001050800449796061
-0.0001355298246871833
0.0007696623900817973
-9.716321915564734e-05
-0.001593616919019106
0.001823029016068351
-0.001596544385274868
-0.0001997809472490223
0.001047463456875279
-0.00126094018589867
0.0001449503307103899
-0.001818358750797616
-0.0001548915595333681
0.0007669585420302745
0.0001039208897237447
0.001592843493066836
-0.000111049903115607
-0.00158571447967475
0.0007683838251900968
-0.001589786714716112
-0.0002134439177168156
0.001045434860622926
-0.001257287147900681
-0.0001142702601127339
-0.000867471222843005
0.0008747703948414091
-0.0008645405144542283
-0.000122088350664786
0.0008723586050030973
0.0001116689654647148
0.001056036443360253
-0.001048402497813403
-0.0001193029110111203
0.0001045261571886374
0.001059102007506566
-0.001051959199233433
0.000169858780364447
-0.001478700553987036
-0.00018142337876236
0.0006200449859802343
0.001483052770308752
-0.000225006568918913
-0.001064685076240354
-0.001147090241960526
0.0007431385946422159
0.0006211347573456925
-0.001061966488523602
-0.0002403000595036868
-0.001143417382050374
0.0007419768071609587
-9.786296813632834e-05
-0.001058415194055899
-0.001055303299478543
-0.001474030975305377
-0.0001938085725580019
0.0006189449462498738
0.0002567222828039573
0.001469062998589852
-0.0002742398052280853
-0.001135165641510432
0.0007396566087004618
-0.001139388596756076
0.0007408818522407571
-0.0002070602309066409
0.0006177741424731677
-0.0001059832412617624
-0.001601105939068899
0.001607910882198743
-0.0001131883190040835
-0.001596392445959671
0.001603597523698636
0.0001209403013085983
-0.001585916719661005
0.001594167300717474
-0.001591309598888709
0.001599061581186454
-0.001565188692245376
0.0002971983566101561
0.001782613673842983
-0.0003177133639696799
0.001032577206767232
-0.001229487181004684
-0.00015464970633388
0.001570570691553426
0.000144651291735663
-0.001560572276954853
-0.001789604735761956
-0.0002156806435594735
0.0002017426951873364
0.001044575047785077
0.0007589676363487935
-0.00016537069507081
-0.001554467703521486
0.0002779541418427345
0.001035274300884655
-0.001235064130344966
-0.0002306349419391001
0.001040500506557414
0.0007570674656531838
-0.001559541570288624
0.001775074312626372
-0.0003401965555276331
0.001030547175936872
-0.001223596726723741
0.0001770534119989258
0.001553451250423101
-0.000189665919389085
-0.001540838743032681
0.0002469207900715928
-0.001767034886129922
0.001031418113145557
-0.0002645147872312238
0.000753210770143251
-0.001547858853373688
0.00103610514212634
0.0007552550186178023
-0.0003643124293828996
0.001027653720860787
-0.001217121482733469
0.001802271937938846
-0.001580323304299149
-0.0002602543006199334
0.0002435611881170473
0.001039693307597694
-0.001244948828736084
0.0001354071565985381
0.001575567740842039
-0.0015663236057083
0.0001888499215799928
-0.001796169645832119
0.0007606599216154368
0.0001767606223243885
0.000762402037949405
0.0001267347168385073
-0.001571650864548661
0.001037216802190745
-0.001240118865975116
0.0002280984585478659
0.001808006050154485
-0.00158474229671423
0.001041510432519934
-0.001249311456395837
-0.00181334366228662
-0.0001655042248110344
0.000765541133504575
0.001588941283507503
-0.0001186630732050292
-0.001581328113421298
0.001043761157878055
-0.001253508995841193
0.0007639591481800224
-0.001576670653089688
0.0001305072615605303
-0.0008580444340276399
0.0008671203151232651
-0.0008613989794818727
0.0008698178903727738
-0.0001275389485735375
0.001052811085338397
0.001049358196497596
-0.0001363966385175562
-0.001451912106089834
-0.0002534164642620327
0.0002367221317509774
0.0006141669297085525
0.0003356164144619752
0.001445370216646713
-0.001041843262958346
-0.0003595221060235731
-0.001114574791176423
0.0007349535290510551
0.0003134932481221692
-0.001045730130181788
-0.001120244146164853
0.0007361853365829375
-0.0002715204976293562
0.0006128965248463534
0.0002213426564539675
-0.001458038353573441
0.0006153733948340429
0.001463724929884187
-0.0002931734553130304
-0.00113051681521756
0.0007385366207472118
0.0006166083759361677
-0.001125640242569006
0.0007372798782870541
0.0001460216265833972
-0.0001564467764120775
0.001547072661330822
-0.0002035300809332891
-0.001533208499791218
-0.001758335677679694
0.001026345279917555
0.0007513151765795082
-0.0002838395660546379
0.001025612834430638
-0.0003909877352065238
-0.001210200544967856
0.001438298695344591
-0.001037767514451117
-0.001108260689626563
0.0007339749187854861
-0.0003857675160816863
0.0006116947762807958
-0.0002913294909182403
-0.0001678690109575689
2.073907203718714e-05
0.001090944346469778
0.001091638078132975
1.767243961844245e-05
-3.599230402367293e-05
-0.001525452593897857
0.0008977521440556753
3.066354748584683e-05
0.0006330292063799224
0.001524361399333362
4.769566046165485e-05
-0.001181913594352511
0.0007556810155328809
0.0008971368683647645
0.0006326508930604151
4.063472544695409e-05
-0.001182953437477295
0.0007561998567109678
-2.121458717640171e-05
1.806846528149313e-05
0.000900898265944629
0.0009003416314298236
-0.0008983467543202081
0.0009014415377182982
-1.465728699592723e-05
0.001093034324435645
-0.00109005963974506
1.168260230484387e-05
0.001092320713851628
-0.001089305561235676
0.001527701674092182
-3.369183159207211e-05
2.684186061660718e-05
-0.001185426496526173
0.0007576091178408501
-2.542282057626495e-05
2.025239191049583e-05
0.0006339226485912137
-0.001526546266471163
0.0006334402390449953
-0.001184100406480709
0.0007568177476969527
-1.58829692713927e-05
1.265924531125866e-05
0.00165195340090415
-0.001648729676944969
-1.914802819817317e-05
0.001650978025783029
-0.001647712966861384
2.246941633272305e-05
0.001648950343892619
-0.001645571118586712
0.001649992961448699
-0.001646671573321827
0.001867928430056789
-3.417932577190981e-05
2.72364549965176e-05
-0.001295875190770204
0.001067067409185952
-2.480013303626292e-05
1.976914540738264e-05
0.0007828997779251711
0.001866496159931935
-0.001631138822229957
-0.001294385473172515
0.001066062447963396
0.0007822887533276213
-0.001627483378667802
-5.899999799129691e-06
-0.0009005468009305588
0.00090351474109915
-6.301882385693805e-06
0.001654457559627963
-0.001651303608335107
9.469014425939869e-06
0.001652917772866622
-0.001649727541985982
0.001653802928338008
-0.001650635796306181
0.001869449874226729
2.036787747246244e-05
0.001068173534771743
-0.001297512565231291
1.479047497051658e-05
0.001090841039652658
0.0007835875050023041
-0.00163424245783678
0.001870911660191736
1.355982472079982e-05
0.001069303951579003
-0.001299165101189044
7.058586207743196e-06
-0.001630697370514035
9.847669044450735e-06
0.001091580373295855
0.000784274092810692
-0.001634987072170665
0.001872001623140428
-0.001300387216701784
0.001070149219965105
-0.001631455544932122
0.001092128705184316
0.0007847974628184604
8.893511056561606e-06
-0.0008995642807330946
0.0009025888729724198
-0.0009001348704846415
0.0009031283817354707
8.739595102538486e-06
0.001093784046846152
5.818336430369504e-06
0.001094501631961577
-0.00153097444781161
-1.006810958648812e-05
0.0006354688993509848
-0.001095038194886439
-1.335915057049673e-05
-0.001189583915139195
0.0007603218240360177
0.001528927694553056
2.006994172167342e-05
-0.001186938505210712
0.0007585667763893641
1.513811018637462e-05
0.000634477695529108
-0.001530103030090204
0.0006350381601965069
-0.001188447609030737
0.0007595570020375753
0.0009874161499358132
0.001243929653020837
5.245732958761752e-05
-5.858164718528835e-05
-5.134023822290654e-05
-0.001245047045496796
4.527273793084199e-05
-5.199218412098113e-05
-0.0009879206222207751
4.592447271743678e-05
0.0009868751310345325
-0.001130200258280422
-0.0008505562445887667
-5.812877892157574e-05
0.001070158736046288
0.0009168774914028979
-5.830083749025594e-05
0.0009868881770015219
-5.751318587521967e-05
4.612368220368872e-05
-0.001233230995747951
-0.001270873440026332
5.020493167621682e-05
-5.634522394932368e-05
-5.418810171514088e-05
0.001271734550996961
4.779231163374129e-05
-4.80235928470962e-05
0.001234364631802806
4.240868547851522e-05
-0.001173876772583876
0.001307823905809598
0.001240546647537177
-5.158988407220451e-05
-0.001379221427201296
-0.001163763973094141
-5.384753162021989e-05
-0.001173128244283277
-6.071858183268474e-05
4.435743938760511e-05
0.0009867576587658123
-6.528297070590478e-05
0.001242572726147486
-0.00112893633037811
-0.0008500345105768663
0.001069023614222817
0.0009163441406537071
-0.001241288948661506
6.389733997103978e-05
-7.041533135195557e-05
6.469017336304554e-05
-0.0009862084172619354
-7.134730463646148e-05
0.0009859131189193173
0.0009857612532118074
-7.171282593750289e-05
-0.001231892705994378
-0.001269859020278725
-6.248323941632993e-05
0.001306785304424924
0.001239248861697587
-0.001378231886188334
-0.001161889559859527
6.744567955305488e-05
0.001268854815042447
-7.434293948862789e-05
5.975773857612728e-05
0.001230570371626107
-6.590443428706539e-05
-0.001170419548047196
-0.001171157190890767
-6.897856422127432e-05
-0.001265061499380647
-0.001225505462455428
-8.939688537049821e-05
8.24244653762497e-05
8.547238372543467e-05
0.001223654581835308
-9.251489354185212e-05
-0.001163537655123744
9.651409921770193e-05
0.00126367438999126
-0.0001044380705155341
0.001233093079633685
0.001302078502757922
7.546515620435675e-05
-0.001372865549900694
-0.001155503195714059
8.88471143810555e-05
7.873409785788513e-05
-0.00116444287842779
-9.687249574458375e-05
0.00123624780389786
0.0009839642292080641
-9.340003498786014e-05
8.569073506662694e-05
9.251790809596406e-05
-0.0009832517663646101
-0.0001001403055474069
0.0009837615354141576
-0.0008476567658206696
-0.001122882700810605
8.502481042864451e-05
0.001063351119238182
0.0009144806031633097
9.143955157599038e-05
-0.001234451290121373
-9.892458084732735e-05
8.41548594166974e-05
8.523074393293195e-05
0.0009834154180664626
-0.0001007105379853154
7.886849377588755e-05
0.001238160152992969
0.0009848300127150214
-0.001239680348249679
-7.720249920683732e-05
-0.0009854552311506779
-7.813847115433343e-05
0.0009846266371439604
-0.0008483375708428242
-0.001124663950556772
0.001064942606254031
0.0009151304406030723
0.000984883012886181
-0.001266470324959313
-0.001227404873359833
7.548768699548802e-05
-8.148975094756329e-05
0.001267656009909901
0.001234946406099782
0.001303507576407419
-0.001374241435753325
-0.001158216476770853
-7.218463369129356e-05
0.001228973252760934
-0.001168056849992908
-0.001167256772011671
-0.001219250039944913
-0.00126043437009947
0.0001044155522959499
-0.0001125431852611688
-9.981536336107896e-05
0.001221416755671458
-0.001160217731982242
-0.0001127418159856463
0.001262038848922211
0.001297656074276597
0.001227080257810437
-0.0001030423679431871
-0.001367388016766317
-0.001150394475343863
-0.0001074554791867582
-0.001159178935892513
-0.0001213571170505427
0.0009814639173525764
0.0001090886060913218
0.001230090278842239
-0.000116997988082421
-0.0001080335250827113
-0.0009822674639094532
0.000982106989486381
-0.001232195904731344
-0.0001068146091009254
-0.001116917455108146
-0.0008454362248273699
-0.0001160743672612402
0.001057629330947042
0.0009129779740346968
-0.0001162948451673092
0.0009825418517377719
-0.0001149455921056586
-0.001216635701117764
-0.001258557636541944
-0.0001207849235889161
0.0001304362648341619
0.001256720477696535
-0.0001398927006348504
0.001295766715588833
0.001224533318793997
-0.001365551810424223
-0.001146636400577846
0.0001154429676020916
0.001214117073412387
-0.0001238048058480151
-0.001154097446337935
-0.00115529313173507
-0.0001296999083789926
0.0009803605813227261
0.001227454565903086
-0.0001261816851521739
0.0001235674402289071
-0.001225008212930415
-0.0001324811078229558
-0.001114453541429319
-0.000844572982926962
0.001055414684726355
0.0009122380836665482
0.0001249255842488968
-0.0009794672935144245
-0.0001339559201514852
0.0009812366217774411
0.0009807037503965286
-0.0001348229360484765
0.001215603679841178
0.0009759522135928776
-0.0001658635903654635
0.0001545193851444963
-0.001132748231341073
0.0001640852764188147
-0.0009749022993274223
-0.0001751730514596981
-0.001092341599452937
0.0009785129765849745
-0.0008407953418017591
-0.00110305061872616
0.0001532258043590158
0.001044683505772062
0.0009097804536622397
0.0001624668845208049
-0.001212357577212505
-0.0001735109914523983
0.0001518635277845654
0.0001534476729408473
-0.001094185202521507
0.0009777244008529647
-0.0001765038345834445
-0.001131184771709912
-0.001208168653282682
0.0001387970448946946
-0.001252502858629938
0.001206323555325899
-0.0001486649141654464
0.001254588661183445
-0.0001499160790231951
-0.0001326318747851085
0.001211081865018997
0.001239261847935699
-0.001149574732387237
0.001290037730335833
0.001216414244192994
-0.001358343614971348
-0.0001361298356942877
-0.001139713286045043
0.001239301993402735
-0.0001418658106496322
-0.001148198980498254
0.001207375158023976
-0.0001603974973670635
0.0001449811384014087
0.001219129564767275
0.0009772730964664456
-0.00113787800858319
-0.001221952309393118
-0.0001419933001653857
-0.0009782500527198785
-0.0001434874772845328
-0.001100612385663316
0.0009792288499794659
-0.0008418153060859478
-0.001106361232451544
0.0010476567371759
0.0009104955657320277
-0.00113924370997306
-0.001099005116015942
0.000979877175676756
0.0009658658405266108
0.001178844856965967
-0.0002818251728009948
0.0002621844884096206
-0.001094522837170793
0.0002779925592980662
-0.0009649036268219485
-0.0002967904889163387
-0.001053098918663611
0.0009753752420414851
-0.001067303505546659
-0.000832172841334037
0.0002596079727560393
0.00101125067760008
0.0009066732417887276
0.0002763786298117433
-0.00117304784947225
-0.0002957966557184265
0.0002594867892373773
-0.001056362139881627
0.0009734302449077651
0.0002580615178779033
-0.0003003116578143693
-0.001091811270433432
0.0009672466006069655
0.0002463862188342036
0.001185170208723165
-0.001104041332998069
-0.001190146710331915
-0.0002415208592892833
0.0002258377881001134
-0.0002432774498521538
-0.0009683385145121489
0.0002274637947842016
-0.001068110949157946
0.0009738989900354086
-0.001073349937099171
-0.0008331380903829566
0.001016705674244697
0.0009062085248271477
-0.001065299738392606
0.0009754057412723762
0.0002295683685839836
-0.001106393073721641
0.0001892995758104859
0.0009723914522375155
0.001204562866884095
-0.0002012981658241862
-0.001123445296591168
-0.0009734955100441714
-0.0001871742793440683
-0.001086751626287883
0.0009762558858010814
-0.001208295029486458
-0.0001854563743138507
-0.001092265132953012
-0.0008375946826591233
-0.0001994856170386707
0.00103440837421896
0.0009079897500055365