/*--------------------------------*- C++ -*----------------------------------*\
  =========                 |
  \\      /  F ield         | OpenFOAM: The Open Source CFD Toolbox
   \\    /   O peration     | Website:  https://openfoam.org
    \\  /    A nd           | Version:  7
     \\/     M anipulation  |
\*---------------------------------------------------------------------------*/
FoamFile
{
    version     2.0;
    format      ascii;
    class       volScalarField;
    location    "0";
    object      Phi;
}
// * * * * * * * * * * * * * * * * * * * * * * * * * * * * * * * * * * * * * //

dimensions      [0 2 -1 0 0 0 0];

internalField   nonuniform List<scalar> 
12672
(
27.49862473048399
27.50303011989039
27.48916795718223
27.40491466732162
27.57509473238975
27.49173497077309
27.40900524472555
27.57876544159657
27.58562759638955
27.49487475865533
27.41665532402097
27.41067205188292
27.58025762478802
27.58772318703498
27.41899627082659
27.50814560342107
27.59505691185802
27.42716724351254
27.4410899866702
27.59786283711167
27.4303004003258
27.48286867012613
27.46456918646
27.44518915109635
27.45924186049002
27.48982962780759
27.33303256057551
27.48714224365121
27.40384151467733
27.48563048235417
27.5719890860591
27.57413472715415
27.50233279622383
27.40144481135703
27.50183765411566
27.4846151626902
27.40091107266698
27.57151507209282
27.48150790707734
27.4468483588681
27.50559372470358
27.50674046367882
27.44803981428429
27.48034277990971
27.37065961552582
27.3747032177796
27.38364083468791
27.37902437361671
27.41191674783783
27.41880458478178
27.42618498121925
27.47842204724896
27.44579756642331
27.50458234353784
27.47931532064516
27.44488423595306
27.50370322133633
27.57993886728216
27.57798303740683
27.57453116910896
27.5761824951159
27.58205544081714
27.58434018648826
27.58944318669835
27.58679975184984
27.63997958024012
27.63405452381595
27.62334542608967
27.62852078151922
27.6463261685012
27.56932948955142
27.57042750337996
27.57302461175784
27.57165791486084
27.48281331402378
27.45085808190198
27.50945289008952
27.50802550203512
27.48426355756381
27.44937498988875
27.4876142533919
27.45249301356387
27.51102637976306
27.51275108629009
27.48586195077696
27.45428509836984
27.4895245863011
27.51667448908909
27.45836195058262
27.51463168269912
27.45623922593826
27.49160005870579
27.34671499899688
27.34898877964787
27.34462182522558
27.34270279652544
27.42042332144291
27.42225290407634
27.37447322197202
27.40655089326259
27.40435788179549
27.37670847817213
27.37241550718753
27.40048788245462
27.40233912753386
27.37052879801244
27.42641535646945
27.42424810103032
27.41466063325732
27.41587693011817
27.36584062105598
27.39465714675672
27.39588786621683
27.36458630175534
27.33793447201226
27.33665842829767
27.33936435140636
27.34095216188667
27.41875411445246
27.41724005160693
27.36724631817201
27.39879902853696
27.39726706246252
27.36880753547164
27.4988797577685
27.52660176404907
27.46867810227389
27.52384069142894
27.46580885958203
27.50168479884229
27.49627023764587
27.51888523687061
27.46065925996329
27.52127164434221
27.49384571999238
27.46313913922002
27.35410789517426
27.35145036123237
27.35696976941349
27.36004518845746
27.43694895514526
27.43401925500091
27.38174005655563
27.40892441434051
27.37912809160117
27.41148665029439
27.42876108257306
27.43129312692741
27.38455249399782
27.41720969068865
27.41424512390038
27.38757484909825
27.36687804629321
27.36334409772385
27.44009165133095
27.44345890566573
27.39800696738621
27.43134062029054
27.4274419205542
27.40198149009472
27.39429021952923
27.4203894584691
27.39081688608784
27.42379646120961
27.45091590410949
27.44706226483223
27.60204574286567
27.59856818322271
27.59227857891394
27.59531695687157
27.50791670529387
27.52956335904014
27.47175571043885
27.5046928525421
27.47505346994894
27.53273690419196
27.51136553947497
27.48235634351756
27.53976495288149
27.47858220797857
27.53613277954872
27.51505495816281
27.38857174507571
27.3938391332635
27.46915454721949
27.46413373625538
27.41076642752764
27.43550640348233
27.40622874371907
27.43995746123524
27.45503403642293
27.45943411707179
27.41561303092279
27.44978934899261
27.44471093057521
27.42079051020853
27.60576171951855
27.60973269846869
27.6185049711177
27.61397359085831
27.54313297934645
27.56201119705839
27.50547055472827
27.56741636585093
27.53764464204889
27.51108627009123
27.5489994885647
27.57938418824115
27.52352020181547
27.57319603689912
27.51709114193872
27.55528174381115
27.52770604639311
27.55695563330555
27.5002178898637
27.49530074234772
27.55222299054769
27.53251219688913
27.52320862761109
27.48638919836238
27.54364616852735
27.51899627423925
27.49069850093771
27.5477935958243
27.40548266208771
27.39946686872184
27.47451852648189
27.48025284658906
27.43855867179776
27.47385352948827
27.46721468393557
27.44532837791276
27.43223492229338
27.45521413227588
27.42632194712132
27.46101353366736
27.49295060300745
27.4863853347575
27.58601289475521
27.53040708839928
27.56200850076015
27.4809649810228
27.45258161636519
27.49998447729044
27.41358791117324
27.41265562713266
27.36251882228719
27.39357178229228
27.36348005891831
27.39262855022873
27.33455534095602
27.33553301955146
27.3337226534399
27.41120264909325
27.41186130668927
27.39115892936562
27.36102126773602
27.36170000674535
27.39182505767174
27.5662068895837
27.56680189979726
27.56836106287491
27.56751924789269
27.47702939081854
27.44346064857294
27.4776609013466
27.44410603528696
27.50295411464462
27.33180107342555
27.56514204959266
27.5657326887409
27.56537802966337
27.47652597014195
27.44294637737161
27.47614927890105
27.50146733903443
27.44256178044729
27.47589854625411
27.50122092301256
27.44230584560044
27.33248324895469
27.3320732520744
27.41067785812463
27.410285440281
27.35980826502382
27.3899678862148
27.41002428942113
27.39062835814173
27.36048073539575
27.36007684065621
27.39023175360458
27.45806336062617
27.42615781642009
27.43373220739311
27.40613068564392
27.4349254682827
27.42736270600736
27.45688223440488
27.51485494143467
27.54051578625213
27.54618825802189
27.57618713715055
27.54729835486624
27.54163512324702
27.51371906468139
27.45938128126504
27.40749256816862
27.43021172670953
27.43773978921099
27.43625594047921
27.46085084969436
27.42871219486276
27.51612894483862
27.57740610762598
27.54428244182078
27.54991884639862
27.54853799665587
27.54288923537764
27.51754237314885
27.52267307261105
27.55689120533075
27.55133018311319
27.58368284733809
27.54933646880506
27.5549163121427
27.52469527511103
27.46616704785755
27.44522662063927
27.41449113390804
27.43779640830123
27.43565042688968
27.44310462441832
27.46826952915379
27.46423939041559
27.43186395559414
27.43936771578901
27.41249941143285
27.46246405245325
27.43367576245008
27.44115985782149
27.52080949967732
27.545817984416
27.58189981279536
27.55143595125652
27.54750131990971
27.55310383741656
27.51910193803489
27.52924748463261
27.55902097147235
27.55348738430208
27.58999465366864
27.56132727367552
27.55581633350565
27.52688553390739
27.47299082186592
27.44751175408361
27.44011770233393
27.42152410554224
27.44998972672198
27.47053512579727
27.44262458375893
27.53179207502897
27.56101749582968
27.59242929717704
27.56646841238846
27.56380102645461
27.55832301621403
27.53452432428091
27.47562288066336
27.44822199781254
27.42424355809333
27.45550909159784
27.45264363419949
27.44532188086846
27.47846339482477
27.48823635859888
27.46912226796788
27.43724874142471
27.46204022394446
27.45822710380516
27.46535885903272
27.49197012043615
27.54059653329958
27.56390704646517
27.56931856290148
27.60088240274937
27.57238308715435
27.53745683694669
27.56700393316246
27.48476018640732
27.45133082579811
27.45856605152958
27.4336589393652
27.48149647693079
27.4546634260354
27.46185717574419
27.52619800954852
27.50992371398639
27.47635094077716
27.50358374629306
27.50354908898611
27.49709763273142
27.53254144088709
27.52030032487943
27.48537399584982
27.49204998718162
27.47026980763665
27.49762896011739
27.51475429520261
27.49104226393403
27.50020208387201
27.47311957484406
27.46611187514999
27.44957190059711
27.4959408208214
27.47741236234339
27.47046453009643
27.50473048199773
27.48007459415732
27.4542451724808
27.48685999812703
27.48196762701123
27.475109536978
27.50959007371219
27.5465790655089
27.51669391839796
27.51052422155284
27.49730873791967
27.53929628019577
27.52400264455727
27.51797524491886
27.45493728756038
27.42509540764857
27.43268308718212
27.40290749494813
27.45584404671238
27.43176546490833
27.42417128351752
27.53733212745113
27.51048047682708
27.54302432240931
27.51109901911407
27.57258370532885
27.54363153910241
27.53793901813414
27.51184396898902
27.53952865058583
27.54521134613372
27.5732963910243
27.51271571505271
27.54435842855745
27.53867040600289
27.43032833032663
27.45352189974207
27.42272934238257
27.4541658932722
27.40210936241825
27.43098337813469
27.4233836037725
27.5419263076802
27.57092091556294
27.50936479645512
27.5362451082285
27.40024087421668
27.45236184170739
27.4291388168127
27.42155489119644
27.40050965561714
27.42980248797711
27.45300755256173
27.42220709775575
27.45262002392834
27.42940480530553
27.42181567017237
27.53684824298195
27.50998472429476
27.54253797183292
27.54217116697425
27.57115823368208
27.50961317734732
27.53648613376734
27.21147291374733
27.22090661772701
27.20909194828781
27.26440143180677
27.26751250071095
27.26830817493543
27.26360407957612
27.22398090435413
27.2207210107613
27.22153579577025
27.22316711175848
27.27654233366246
27.27155911698652
27.27235295723255
27.27575041779639
27.19127482449492
27.19213895691129
27.19351945197307
27.19265857694823
27.21688368197918
27.21835510325328
27.21917085073861
27.21606704819882
27.24675062323498
27.24275758086107
27.24356326830681
27.24594618842497
27.23749811604915
27.23967347304844
27.24048041864184
27.23668996261451
27.29990321558446
27.2991226489875
27.20117352951735
27.20207664931443
27.20289814113196
27.20035087451152
27.20654758924226
27.20386857516568
27.20468932045112
27.20572743527582
27.26062719716907
27.2561794666922
27.2569798743189
27.2598282490544
27.22650849857929
27.2283095617151
27.2291212142222
27.22569576521274
27.28088257760986
27.28459330359084
27.28538096259913
27.28009275073017
27.19493269316647
27.19556043926678
27.1963967183566
27.19408438861874
27.21467225992633
27.21171636592777
27.21253459946788
27.21385478431196
27.25004628259236
27.25265278603187
27.25345459831418
27.24924315377749
27.2346129979314
27.23101117645194
27.23182168671667
27.23380363926206
27.29488269372604
27.28925940057625
27.29004474966411
27.29409968347166
27.19951521840403
27.19709438764188
27.19792319183926
27.19869044885361
27.20847376696204
27.20965005326816
27.21046899231366
27.20765420411016
27.18993085810951
27.19078740590702
27.18947664647388
27.18863160055189
27.1942421300413
27.20407723759711
27.19548617835515
27.20035482840816
27.17515237699301
27.17485400112194
27.17572334720879
27.17428154537656
27.17694181656553
27.17545629191349
27.17631436582231
27.17609579418435
27.18379554735256
27.18192495644228
27.18279268132464
27.18293000012944
27.18086856912594
27.1809537864229
27.18181300600617
27.1800214714951
27.17459987558651
27.17322897803429
27.174079629888
27.1737379179291
27.18822242521524
27.18619236394851
27.18702987210388
27.18738424668376
27.17761877820403
27.17751390799974
27.17834923960836
27.17678022440546
27.17318451951819
27.17276192789967
27.17360628880416
27.17234021289666
27.18482495764805
27.18505584319808
27.18589881404387
27.18397092372479
27.1799741265056
27.17829880074769
27.17913418193593
27.17913516779978
27.2029040752827
27.21424679382164
27.21750347201361
27.20647368847987
27.20431831010574
27.20821760863741
27.21297325885634
27.18560255212316
27.19335814742064
27.20202330472417
27.19341663572516
27.19696087015118
27.19855761496697
27.19093067259729
27.19160134278962
27.17192316464157
27.17132600717554
27.17219866610973
27.17104972757259
27.17281406878923
27.17162812456238
27.1724901348032
27.17196359461035
27.17166214145999
27.17057723082232
27.17142913975
27.17079826458984
27.19061958084277
27.18226327204766
27.19239151953578
27.20354330074787
27.20601635763412
27.20681868516232
27.20528329277836
27.20994347176698
27.21152220085657
27.20337636453803
27.1710908510583
27.17039357104111
27.1712375875349
27.17025079360706
27.19033640338695
27.20345691440499
27.2375374107553
27.2239365392107
27.23392774424456
27.22160414886287
27.2167333048373
27.22691038485199
27.23041644508552
27.21926181346181
27.21454283127148
27.29801511567192
27.35803887599525
27.32892607385431
27.30054823892111
27.32448787533061
27.30238479767652
27.26141566713702
27.26259847728964
27.29421325541024
27.27802574247796
27.28382562608564
27.25953181369101
27.26543350127969
27.2754550841895
27.27089615938233
27.35693806968213
27.25824956159862
27.29352469313852
27.3452278865515
27.34088214572403
27.30868269105325
27.31142311759837
27.36068572945507
27.33872933895975
27.37508062189927
27.38455008205003
27.36974531062026
27.34991111172448
27.41447599510884
27.39534484643739
27.30623899995518
27.34767687546753
27.35316875544661
27.31644459432026
27.37079321913489
27.36302113613776
27.37730957767551
27.3941404850532
27.42176092032108
27.44697411000026
27.29816343247998
27.27825526136206
27.26039653217559
27.24098769217947
27.23996585762681
27.26394076825956
27.24219753610052
27.24357673015838
27.29051607255034
27.27050785588745
27.27425486244069
27.25285801782863
27.25664677454611
27.23984646745126
27.24273640897234
27.28081431437588
27.25779734531957
27.26063134703478
27.28705800537395
27.26699793522847
27.26370717155027
27.24929793350256
27.24593144406888
27.25881373324896
27.23836294742416
27.23909975503496
27.26708012343205
27.24673953914643
27.24509010723125
27.23729135781794
27.23490458785034
27.27308288138962
27.25520768890758
27.25281401045489
27.26889564625435
27.24855922271094
27.25058861198056
27.23052128866569
27.23259911139416
27.30402709181593
27.30374963694128
27.3280768183087
27.328356130618
27.30754184223469
27.30570564078516
27.35515618428089
27.23778747071912
27.257846692316
27.23740283582123
27.22286993496188
27.22188565132127
27.22025536184593
27.22104982466839
27.22413348745325
27.22560180875671
27.22874551391018
27.22713909179765
27.21963511523095
27.21930114809978
27.25759806193065
27.23718908969978
27.21916654638589
27.28472736299114
27.26368196184971
27.24149817527987
27.25756918403963
27.29273259841796
27.23681359253516
27.2244970663471
27.26835411428657
27.26458792663459
27.22560509167786
27.23074109555771
27.27628795569369
27.28695286303796
27.22079897686972
27.21872389269711
27.2483560987503
27.25505496707538
27.2420908650256
27.23343924997858
27.30376808292009
27.29161181365577
27.20524465807933
27.20632715908848
27.21210351519979
27.27903501564457
27.27724003610254
27.27139333443986
27.27022837635372
27.25757354689216
27.26079519980498
27.23492206936861
27.2465044203444
27.23738970738336
27.25185249610633
27.25133331635332
27.24549631407109
27.28298144218727
27.30130455568075
27.29144889583444
27.31049820458607
27.30542621922632
27.21392272371978
27.23013780330229
27.23242993825026
27.22566180241771
27.22833069713435
27.21568118335984
27.21945425358549
27.25443914552568
27.27039441041617
27.29743354638034
27.27646656281169
27.24978849434036
27.25940932483967
27.26471776636773
27.28998716941398
27.2829838683589
27.24543423353906
27.24135930317281
27.31729086080595
27.31280514352926
27.27208674059755
27.27325984585175
27.30537759920833
27.30467805149873
27.28860699502955
27.27020936531174
27.28604964560386
27.28151659949969
27.2689322003204
27.28709363393687
27.29197038123967
27.32913470148462
27.32185431602496
27.33692661769248
27.34528187805176
27.28252935571065
27.30860647048046
27.27107171910824
27.27459022271264
27.30274372246737
27.29717802461989
27.26961784083984
27.27454511825915
27.28543288746866
27.27980721579403
27.30869035691689
27.31505241162716
27.31215190259584
27.30478443308234
27.29144683177978
27.29788888004385
27.35425211827798
27.3138674021941
27.32002606113283
27.32845637586897
27.32294125081023
27.33749619518525
27.26500672027273
27.26068871254864
27.30100342885365
27.2913750919199
27.294361172974
27.29756847614854
27.26949535200589
27.27607462899279
27.2777166390481
27.28368961298533
27.27952705122301
27.26852294457667
27.26826385647857
27.33524631206241
27.33967115574133
27.38039982514858
27.38795531515643
27.30689337328038
27.34838876309419
27.35608277827676
27.35858396660908
27.36624389200893
27.31685347810997
27.37320422193034
27.32720100675735
27.34475550468055
27.38329151960768
27.30888949180998
27.30441766717312
27.38887946268676
27.38277306744584
27.3768995313649
27.29626691647918
27.38107252613629
27.31141160011413
27.39126912267825
27.3996121971543
27.32723130985282
27.41383195873373
27.40281212926355
27.34944684170211
27.41802045361663
27.43237959721971
27.36676110749791
27.45654237192545
27.43782782856455
27.40477154047526
27.4636724051564
27.48836730848198
27.31171012164873
27.3412044063106
27.36433848812323
27.32208288544619
27.35143399268634
27.3744624550144
27.32234891146123
27.33449508321107
27.32821881163513
27.33266875283396
27.33851043513423
27.37580554328848
27.29511315559861
27.37336696010447
27.48410372574122
27.37215168394314
27.37282722601597
27.33110505023738
27.3600383307348
27.35596181981734
27.34439817495745
27.36439418227856
27.36904748573648
27.37334804916969
27.40448308692463
27.39754295353038
27.39606214976128
27.41191863861401
27.41989628259051
27.30656083125212
27.33410497061612
27.33181216338838
27.30245376916242
27.32776726517084
27.32970177593777
27.36151154468104
27.38667044739459
27.35926055881314
27.35528895287532
27.3846378724385
27.35718871832951
27.34930490459591
27.37813998525086
27.35056840734996
27.29757505023654
27.3216737859708
27.32296070099862
27.29903917352678
27.30066327812301
27.32600277484155
27.32440233260807
27.37952912743437
27.35355601607041
27.35198395337648
27.31413657426878
27.3365875459801
27.3392683158099
27.31707259771159
27.32022743455886
27.34525801322265
27.34215551420198
27.36394804865752
27.39384991648112
27.3665786869918
27.37245451704921
27.39662677039985
27.36941085906949
27.32360978654206
27.34858533621839
27.35214907147977
27.38695542375394
27.40990887771022
27.38295560679978
27.37571846827751
27.40624186007078
27.37921510153988
27.35484005082462
27.37932612132504
27.37401732963352
27.39122841966551
27.42249735952025
27.39579357096113
27.40587505780513
27.42727429560282
27.40066796585644
27.36060189119975
27.38499756547666
27.39105984858463
27.43053793725602
27.44987760554154
27.42373535925702
27.41143612896107
27.44365432605649
27.4173805808209
27.41414715471107
27.43769087322494
27.42846627087295
27.43782281702465
27.47132508363081
27.4456382385446
27.46305989421043
27.47953153224078
27.45402928187359
27.34819045483113
27.37485371901318
27.34722178490401
27.29411185056827
27.32053875947619
27.31955300302463
27.31801887302219
27.2925550914396
27.29326000768976
27.31871382919741
27.34571149001224
27.37404193622477
27.34639634011626
27.31678302661426
27.29131242020549
27.31705513109473
27.29158275994776
27.31746644410713
27.29199621092664
27.34448505761679
27.37242197878253
27.34475684547823
27.34516540712547
27.19388968775417
27.19658688542119
27.19525942374796
27.19793791266225
27.20052749722235
27.19806414479568
27.19663421805179
27.19923698089539
27.19366357620607
27.19116892832827
27.19251928762939
27.19525255170631
27.17691536369669
27.18018883522405
27.17748168332935
27.1796303831836
27.17828937199441
27.1763385077784
27.17905772236088
27.17578075935787
27.19115430555894
27.1923530187213
27.18989116244447
27.18869630111356
27.17863104071982
27.18070441808927
27.17803971664327
27.1811251658066
27.17928866532588
27.18247296550649
27.18175530751511
27.18001297728349
27.17776666502732
27.17734365139309
27.17486484692052
27.17528705910131
27.18554533216333
27.18725762496411
27.18823880854297
27.18455019673888
27.19006029338049
27.18653939661468
27.1875797693723
27.18917260116407
27.18256491165398
27.18627821820958
27.18354888301311
27.18506806825159
27.18164600463591
27.18325941430447
27.18079838722345
27.18411643476869
27.17369129790912
27.17668264875743
27.17641454623633
27.1739641703218
27.17564970280823
27.17313334110859
27.17340394162212
27.17612098416019
27.17701775279136
27.17451234783242
27.17691171096249
27.1742245890271
27.17524577629738
27.17540726636328
27.17291990757024
27.17276575842919
27.29567660442787
27.32116242031855
27.31886039072663
27.33295493853748
27.35928973374034
27.33422636536404
27.33366751806928
27.35155743306668
27.35622141120782
27.32365518477554
27.30328732848023
27.32634767034056
27.3471911355813
27.32033219472675
27.34310304648357
27.33183325405225
27.35597636749738
27.33085704576443
27.31674189786132
27.29155331582043
27.31480016852774
27.34296446412441
27.37009442040681
27.36786905718803
27.36394905880531
27.33897205533089
27.36582776072698
27.30997561518678
27.28534309102594
27.2866581630772
27.28975745720633
27.31302945326421
27.28812819271282
27.33564963171062
27.36224096626185
27.3372304155016
27.36120030197047
27.34413693665483
27.36651824491587
27.37966238285643
27.39937200239508
27.4038725470402
27.38977279954769
27.40865589863717
27.41378445876594
27.36268104344887
27.3916924187709
27.38475009173656
27.37219618876528
27.35608384507897
27.37826475933253
27.40766417114092
27.43798385718162
27.43130157276378
27.4192349101705
27.40130260538444
27.42508287624887
27.32924730275472
27.30941028486942
27.3323628223209
27.35032223916481
27.37249407374002
27.37509374167083
27.38088792671284
27.35622872197605
27.37788155746017
27.33927881002546
27.31280787581522
27.33570261835541
27.36677654345321
27.39517460254499
27.39122832639656
27.38409892775178
27.35950770115817
27.38755095781016
27.38542697774885
27.39912452663201
27.4070975997633
27.42485953118699
27.41565333064979
27.44509844193218
27.42957809468283
27.45276062731639
27.4697623902462
27.43795665912459
27.46093318536815
27.28063730714691
27.30444496468453
27.28105133675468
27.28036750724926
27.35322219502464
27.32877428476175
27.35350136096158
27.35391849330009
27.30655053517274
27.28418312371495
27.28317713538016
27.30500438910914
27.28161293113675
27.28232152329741
27.33002387195195
27.32933016286511
27.35446982991515
27.26599303489308
27.27225282174592
27.26989645364643
27.26222198644621
27.25857749296213
27.26094725822738
27.22801395163367
27.22316196676521
27.22557369562986
27.2281305380463
27.23053603887661
27.23314348140067
27.27393749750809
27.27812299124313
27.28046774917431
27.28245891120447
27.28479667637986
27.28928394837057
27.22321378177225
27.22093094368985
27.21851357837405
27.21630386016998
27.21416770753504
27.21658991015821
27.25073711841925
27.24517119110123
27.24755558364298
27.25742877594611
27.25164918403519
27.25402636304146
27.24447915221152
27.24150262696094
27.23911095269381
27.2358379974047
27.23862372178534
27.23622826722985
27.30146042833762
27.29393490114648
27.29876086848544
27.29644497559585
27.20281404343629
27.204537077786
27.20696680528103
27.20201237248255
27.19957362462188
27.20359089859699
27.20115870329322
27.2087559462213
27.20818443049709
27.21061211174774
27.21452792696224
27.21010949918284
27.21253559411941
27.51393902953114
27.43410383048915
27.57697947244006
27.55428130695766
27.60899321705564
27.60076676229825
27.54573512001302
27.58532638608851
27.56922841057506
27.59312631149502
27.53779726437211
27.44261209009665
27.45177108475631
27.52436914400979
27.5156401132454
27.46036398415748
27.48859560230348
27.50753190323112
27.46872489283728
27.50561432233202
27.47772521958115
27.49679136805507
27.5543505020548
27.53457699224693
27.50531103706027
27.54019730380418
27.53177566612452
27.52596809385648
27.56275809483682
27.52078536610209
27.55865709475469
27.5284875155495
27.57168580335352
27.61585864972768
27.61059124556857
27.61792003028769
27.62511554332306
27.67432274670175
27.6581285189637
27.68049926192916
27.60552433422219
27.60912385149209
27.63738891935661
27.62787673768011
27.51403728447298
27.60755398154279
27.64100722435435
27.65341620232306
27.64512021789128
27.5472589563994
27.62864558196656
27.61122876362984
27.53726311498119
27.62386390565102
27.65137876051185
27.60458097806558
27.63401927395899
27.65298968149571
27.65997703519833
27.78074103200122
27.69202894928797
27.64810723670944
27.6139535028998
27.6462451432395
27.64295860730236
27.61219983580742
27.64453081766205
27.67189620353974
27.66266257637231
27.65012242866306
27.6201454861092
27.6522976470207
27.62254080380893
27.65715608947698
27.65463938265232
27.70527238848626
27.66855425979585
27.69963107293979
27.68943466108017
27.66316778349242
27.69436217156382
27.71131522184858
27.64094210469013
27.64443937137156
27.650983978656
27.64586756842258
27.63800595906049
27.60659400776038
27.63905139535078
27.60779248185745
27.64152416488935
27.64022292653499
27.67541335914051
27.68745240081483
27.66915482897866
27.63400201775396
27.66584391072817
27.65985565514237
27.6308360407701
27.66274839547786
27.67269288679358
27.64487446042149
27.67647363503758
27.68482587517823
27.64900353822777
27.68051152484601
27.6379814040487
27.64002349982698
27.63752949484652
27.60248189833548
27.63503287766401
27.60306185198344
27.63559935576635
27.63708386830481
27.60376079998137
27.63628236337605
27.60144331073355
27.60201953155785
27.63424386738107
27.63458144578498
27.60167355950026
27.72283799637975
27.72489623344393
27.77502301204706
27.76968497024246
27.74084697432925
27.73771408421593
27.71137292490384
27.71236215716353
27.72093115522964
27.71916919157764
27.74419483580881
27.74777231836429
27.70855986824535
27.70909578495379
27.7078136089822
27.70813285790122
27.72949340833331
27.72711205130294
27.76003664965864
27.76469926820142
27.73204781882649
27.73478499703252
27.71470200583391
27.71347072002444
27.71605934504779
27.71754702658052
27.75567558055441
27.75159316516569
27.71050040747417
27.70974201999582
27.70760123553319
27.54395783860496
27.57915457562776
27.60409882412804
27.57386131148045
27.57564901113607
27.57031702149513
27.54755028179852
27.58058949391961
27.6172311085978
27.63924394348216
27.61250951555649
27.60647333093277
27.61128133082035
27.58669787384205
27.57488318919385
27.59556379572515
27.6337815481182
27.60054497940774
27.60083695966494
27.60574885509734
27.56954402449641
27.55549096777964
27.58288425431712
27.6151729441533
27.57764765990226
27.58688454074085
27.55139028846493
27.58169451736084
27.5598709439309
27.59063280729329
27.61936483173809
27.59569779832297
27.59113673114092
27.58601527064809
27.56454828040908
27.60025025798194
27.62356285980578
27.61897252304297
27.65812801280152
27.62590995411239
27.59323498070292
27.63039014016871
27.68698297324627
27.65514897660713
27.68909728849964
27.65747916805499
27.69381938594811
27.69137323380899
27.74057280198927
27.70213983963585
27.73509217460997
27.72518621724017
27.69691184504572
27.72997400613252
27.70548053695898
27.66861152695202
27.70226272864659
27.69644297740113
27.66553308701206
27.69925450516077
27.67520538559564
27.64198050161718
27.67622167316609
27.64314715432439
27.67862538809614
27.67736046600132
27.68502431013834
27.64913525606245
27.68321429118082
27.68001969825601
27.64742868237347
27.68154798784845
27.70891858080941
27.67916302357295
27.71259278278551
27.7207086200836
27.68317510797351
27.71651618069523
27.67231506468841
27.63854560069648
27.67286582586124
27.67430902432176
27.63922690387172
27.67352983312922
27.67154783726067
27.67187610667558
27.63719187060166
27.6713294078282
27.63696621096174
27.70191170389872
27.58663493655383
27.67312824756146
27.68712907836889
27.717800023406
27.65313714041775
27.66832899881583
27.73226453857507
27.69424639778345
27.72476506532062
27.66045231640116
27.60777352300184
27.64137819492938
27.66533201910868
27.64554346595215
27.63335732176192
27.61587613115998
27.63766739107812
27.20361810540859
27.20237041467173
27.20614706669668
27.20742373320385
27.21052564663315
27.20510318360495
27.20668229213852
27.20889624124661
27.1942597372717
27.19546252967776
27.19928526619545
27.19806273347334
27.19675731888465
27.19827694739379
27.20055968938711
27.20191075721619
27.1814105593251
27.18524595384154
27.18214064767203
27.18584772096718
27.19316485255289
27.19230408766494
27.19607593553588
27.19698205325412
27.18383195302206
27.18424402959377
27.188080843847
27.18759716199112
27.18559602603075
27.18487931062469
27.18871449586685
27.18946249362537
27.18933347744217
27.18817961813622
27.19200615014558
27.19300611840238
27.18638315451787
27.18724454181987
27.19109469957271
27.19023761275718
27.18264788824588
27.17878775534453
27.1792297557854
27.18297006107845
27.18014497862523
27.18003635508461
27.18398815805701
27.18379570273443
27.18089947158843
27.18474476756043
27.18047573335613
27.18431484174714
27.17839911637184
27.18230250485419
27.18243863034211
27.17856017587384
27.27508014681943
27.27136214468023
27.27525604385118
27.26760353913741
27.26396630691989
27.26769749658447
27.25434448344523
27.25377111258326
27.2505927738093
27.26045396312562
27.25705443185279
27.2642499049453
27.23244684954635
27.23108434529777
27.22864714868171
27.23360120164948
27.23620532969131
27.24003442016546
27.24831345397941
27.24752247662113
27.24454939878328
27.2388941381446
27.24167640274371
27.2426705809564
27.28721858444547
27.27928180285689
27.28345529240905
27.28777302821843
27.29225251457051
27.29599513708663
27.29689036433477
27.30170798769069
27.30053679811429
27.21216425805766
27.2083393583767
27.21006279105111
27.22782194133207
27.22629206711095
27.22401194304054
27.22180909432338
27.21967735593741
27.22349629719648
27.21756873344438
27.21185137312391
27.21370708652393
27.21761890475858
27.21562814952826
27.22147727872573
27.21394910992233
27.21329373732229
27.24479661029261
27.20054283996532
27.17618216504153
26.8449235077579
27.18870980266653
27.26378910679847
27.16003433903689
26.81039751695626
26.77042316152566
27.1695220641511
27.25262321225976