/*--------------------------------*- C++ -*----------------------------------*\
  =========                 |
  \\      /  F ield         | OpenFOAM: The Open Source CFD Toolbox
   \\    /   O peration     | Website:  https://openfoam.org
    \\  /    A nd           | Version:  7
     \\/     M anipulation  |
\*---------------------------------------------------------------------------*/
FoamFile
{
    version     2.0;
    format      ascii;
    class       volVectorField;
    location    "0";
    object      U;
}
// * * * * * * * * * * * * * * * * * * * * * * * * * * * * * * * * * * * * * //

dimensions      [0 1 -1 0 0 0 0];

internalField   nonuniform List<vector> 
12672
(
(0.6690986449187645 -0.05017060009837352 -0.6539934572794123)
(0.6680396072681214 -0.05857456877236974 -0.65146673684822)
(0.6715027362514508 -0.02819289796507007 -0.6592897077246294)
(0.5325229106092332 -0.02813877083245774 -0.6578935453841446)
(0.7379252636403231 -0.02525042604631051 -0.7736889631939562)
(0.6708307832095758 -0.03508498824502503 -0.6578769991924539)
(0.5317645009364775 -0.03912416124353794 -0.655949564805426)
(0.7363222899842917 -0.03509077862929973 -0.7716692967485469)
(0.7333820489804798 -0.04972407221362325 -0.76747340848169)
(0.6700298191141917 -0.04237824111221624 -0.6561190747274063)
(0.5303715738669371 -0.05543558793219622 -0.6522111223483993)
(0.5314259885973384 -0.0429959028110781 -0.6551127874676516)
(0.7357001446317202 -0.0385764807574383 -0.7704642004240811)
(0.7325243354791672 -0.05374869593776938 -0.7657568555226087)
(0.5299378255426681 -0.05990541577543931 -0.6510102727170766)
(0.6668585019891879 -0.06772212906743583 -0.6484957516787806)
(0.7294128638583134 -0.06687154182154195 -0.7616245321687249)
(0.528589759482708 -0.07452863510696529 -0.646968650645575)
(0.5264888803541683 -0.09772274420327186 -0.6398886422092686)
(0.7282964790344864 -0.07169877338927548 -0.7592867090161058)
(0.5280863059103387 -0.07987976706539633 -0.6453245108223223)
(0.5223833661481592 -0.1659001268883562 -0.617528496971846)
(0.5238964018212663 -0.1357284887787033 -0.6274232242508484)
(0.5259803978165565 -0.1043861366905858 -0.6376816251508649)
(0.5242593856868746 -0.1270682369482351 -0.6304118869791447)
(0.5225324074111365 -0.1777275403467051 -0.6133526587984153)
(0.3064733306332363 -0.01525171770707433 -0.6869494559660179)
(0.6720536269562331 -0.02161578829724155 -0.6603635845107456)
(0.5327676251939378 -0.0246474160137251 -0.6584106232448403)
(0.6725033420200117 -0.01527719523254536 -0.6610849790353897)
(0.7392869036383568 -0.01306473118551756 -0.7755600170612033)
(0.7383324820702233 -0.02211020749056818 -0.7744443572658799)
(0.5864538420357703 -0.01373802467612019 -0.8411141298272007)
(0.5332827810977104 -0.01453004647558235 -0.6594042565872197)
(0.5866345508530508 -0.01064821476671326 -0.8413840220567846)
(0.6728624110890015 -0.009105104677783556 -0.6614600540979748)
(0.5334781030747968 -0.01125255816591987 -0.6595640796619557)
(0.739500472981468 -0.01011605879207222 -0.7758738261276875)
(0.5944878064571361 -0.0304046884155394 -0.7735965102139826)
(0.5139167786920644 -0.02759617632363119 -0.792619135535926)
(0.5852339685297285 -0.0265611039824984 -0.8392917085341985)
(0.5848004551631246 -0.02992941099794985 -0.8386462670227899)
(0.5135590517462626 -0.03109665632245337 -0.7920032993880693)
(0.5948924081866905 -0.02698233020259509 -0.7742370530168974)
(0.3000805670370048 -0.09631353667788123 -0.6715105906489516)
(0.2994044052749676 -0.1029533061577162 -0.669853319082937)
(0.2979255076810389 -0.1175066365730684 -0.666201283505534)
(0.298687705315985 -0.1100027046901599 -0.6680847617510841)
(0.2933600139415733 -0.1639620784470427 -0.6546989178007165)
(0.2922696993285335 -0.1756089199114731 -0.6519021757270415)
(0.2911171098985249 -0.1882981374305497 -0.6489021949604472)
(0.5955318747021462 -0.02035151576271783 -0.7752788248430534)
(0.5142265628672288 -0.02417292868434103 -0.7931623773334108)
(0.5856137817307357 -0.02326712444245419 -0.8398609510901804)
(0.5952201903116521 -0.02363395248011159 -0.7747944121816548)
(0.5145007666976349 -0.02081713537059131 -0.7936309274015134)
(0.5859445979705662 -0.02003850633426377 -0.8403533853109101)
(0.6787730695787344 -0.05012181558284958 -0.8599076522540291)
(0.6796840635788501 -0.04623218558361047 -0.8611009761807409)
(0.6812881668138264 -0.03886617882064752 -0.8632083798393317)
(0.6805188034928775 -0.04248447722134974 -0.8622016885030476)
(0.6777924678942282 -0.05416997447763642 -0.8586125527557824)
(0.6767289170602389 -0.0583914317383117 -0.857217473104762)
(0.674361611618815 -0.06743162817993995 -0.8540962365007123)
(0.6755907248216478 -0.06280603668429306 -0.8557112870729314)
(0.6511699182291319 -0.1510356031620149 -0.8230926506183387)
(0.6538748610736295 -0.1410312896072019 -0.8267326994569983)
(0.6587578448598038 -0.1232714530722853 -0.8333162089432086)
(0.6563840296174088 -0.1318042734540444 -0.8301427070942389)
(0.6483115174802552 -0.1619390741585773 -0.8191711533942556)
(0.6837057359239518 -0.02543271774203565 -0.8663797566767213)
(0.6831943864577783 -0.02865735849443838 -0.8657117185440052)
(0.6819868824406696 -0.03536306329502155 -0.8641285204982093)
(0.6826236639984736 -0.03196428832163967 -0.8649609915924533)
(0.5940751335555055 -0.03391438216393085 -0.7728816112522148)
(0.5127221979366104 -0.03837544664035113 -0.7905417383305753)
(0.5837770500358113 -0.03693380526492438 -0.8371161391235773)
(0.5843170823912246 -0.03338354307090582 -0.8379208984089349)
(0.5935735752692399 -0.03752081012774492 -0.7720804078543486)
(0.5131665365559818 -0.03468594333535006 -0.7913100958250124)
(0.5924682834234882 -0.04507778581996784 -0.7702288616015103)
(0.5122430546532812 -0.04217819949447812 -0.7896911139880674)
(0.5831851520734147 -0.04059302973971866 -0.8362266770362774)
(0.5825325850396158 -0.04437286691639185 -0.8352531243897516)
(0.5930717368073037 -0.0412384264469437 -0.7712006429824523)
(0.5117072931312521 -0.04610687189164937 -0.7887606213030479)
(0.5918726021689943 -0.0490549862201762 -0.7691721374942311)
(0.58105242074335 -0.05235130190743458 -0.8330340671145504)
(0.510502969813231 -0.0543998995954211 -0.786635819401457)
(0.5818252754198694 -0.0482878397458457 -0.834188609045433)
(0.5111361861236577 -0.05017601327785512 -0.7877411360879399)
(0.5911613939435544 -0.05318210859830474 -0.7680162369845027)
(0.3041648657030558 -0.05374914185170437 -0.6814076263619587)
(0.3037792671615424 -0.05828455365520984 -0.6804781642640029)
(0.3045191992247577 -0.04938190428682068 -0.6822617307850412)
(0.304842499899656 -0.04516684532852183 -0.6830399890653913)
(0.4383270611907766 -0.04306170438013678 -0.7748281217405166)
(0.4378447509330223 -0.04707396697333677 -0.7739343459329586)
(0.3762625846527211 -0.05283619526716448 -0.705151915390807)
(0.4501486454573878 -0.05620131538739537 -0.7007268313061251)
(0.4506424983357149 -0.05183546931767748 -0.701763144692485)
(0.3758250312878288 -0.05729021954135573 -0.7041673779214535)
(0.3766630278491383 -0.04854657718076911 -0.7060577626234762)
(0.451505178304546 -0.04356982253687978 -0.7035950682623163)
(0.4510857797487368 -0.0476297349257797 -0.7027264638982128)
(0.3770328736195779 -0.04440609436581527 -0.7068831950463714)
(0.4367478739913792 -0.05554463923710374 -0.7718948590177866)
(0.4373200669199442 -0.0512301221173467 -0.7729565776075724)
(0.4398438906795227 -0.02817269944755166 -0.7776410208425879)
(0.439523029402076 -0.03174673403740081 -0.7770482903326645)
(0.3779517196606443 -0.03273815029640852 -0.7089330458206212)
(0.4528194853198854 -0.02850379668852871 -0.7063361263602348)
(0.4525360395151337 -0.03212095257128585 -0.7057627397196649)
(0.3782009937149216 -0.02905200188935443 -0.7094823466814038)
(0.3056458161101563 -0.03330244318546013 -0.6849722818799703)
(0.3058649869707422 -0.02955371104093049 -0.6854945238161944)
(0.3054026943986138 -0.03714239640588925 -0.6843896491270346)
(0.3051358436651039 -0.04109139157686537 -0.6837478647671457)
(0.4387655507551455 -0.03917848667092885 -0.7756441088685985)
(0.4391645926470708 -0.03541138720220708 -0.7763825352763227)
(0.3776754472873367 -0.03651620850151164 -0.7083169513493298)
(0.451878637506973 -0.03964057112790165 -0.7043955244610977)
(0.4522280545452984 -0.03582909934963344 -0.7051109844318388)
(0.3773683100417842 -0.04040051525727604 -0.7076360536593512)
(0.5888426031644828 -0.06663916259182966 -0.7639510348606171)
(0.577311961946939 -0.07043266461512189 -0.8274098577944985)
(0.5074738702171968 -0.07319134802351597 -0.7812368227702895)
(0.5783543352501584 -0.06560120738164513 -0.8289729832184641)
(0.5083225814660468 -0.06817096365312653 -0.782737809267265)
(0.5878958569398923 -0.07154445703473289 -0.7623750534375409)
(0.5896413248723853 -0.06195604877940867 -0.7654107730327133)
(0.5802213101965376 -0.05658013178538186 -0.8317809562762311)
(0.5098338016579264 -0.05879537140149538 -0.7854335801006221)
(0.5793189832163493 -0.06099004544672497 -0.8304307585443096)
(0.5904668168164503 -0.05747771321297965 -0.7667671653940177)
(0.5090963705942121 -0.06337902604448879 -0.7841386196812218)
(0.3029045053159727 -0.0679319329567368 -0.6783670814095237)
(0.3033603937772013 -0.06300687189560833 -0.6794658678294386)
(0.3024111428740337 -0.07307502671098121 -0.6771761093175536)
(0.301881347269742 -0.07845560383509548 -0.6758971359856636)
(0.4339692274786661 -0.07473792054834379 -0.7667140941876703)
(0.4347426947894019 -0.06961093496452109 -0.7681548931863768)
(0.374844509918183 -0.0667599341289801 -0.701934301985216)
(0.4496315898316041 -0.06074479494502345 -0.6995851559691133)
(0.3753551763717285 -0.06192591499455705 -0.7030945210540477)
(0.4490588955035808 -0.06548214808814073 -0.6983645165336607)
(0.43613013622421 -0.06003457995437591 -0.770741849169457)
(0.4354607797464485 -0.06471665872941598 -0.7694979321881064)
(0.3742998581866955 -0.07181067419624938 -0.7006771937529873)
(0.4478097500603926 -0.07561916668020353 -0.6956063515341242)
(0.4484644183673572 -0.07043360855704062 -0.6970269483655211)
(0.3737126732911544 -0.07709870659739534 -0.699328671366556)
(0.3007168566230395 -0.09004168455144389 -0.6730677997285754)
(0.3013170275393452 -0.08410077885650787 -0.6745272488105259)
(0.4331442402513914 -0.08012301349895923 -0.7651660641496407)
(0.4322595823304879 -0.08579252264095322 -0.7635122202707701)
(0.3717292589987244 -0.09466172763784172 -0.6946789366830279)
(0.4448188305362015 -0.09925392063879664 -0.6887654225224159)
(0.4456440227754011 -0.09284938292406314 -0.6906421370780604)
(0.3709830546149943 -0.1011910100895877 -0.6929170536157828)
(0.3724276421430947 -0.08849315883541353 -0.6963341426211298)
(0.447136328186058 -0.08106500544390723 -0.694057975000645)
(0.373092247535025 -0.0826499824223544 -0.6978793530503684)
(0.446397872291772 -0.08679732170648459 -0.6924217436234693)
(0.4303134837810276 -0.09811410550031212 -0.7598514824343422)
(0.4313194274157537 -0.09177854747718593 -0.7617403848489025)
(0.6685329578844083 -0.08853578383000424 -0.8463818557743285)
(0.6701434497568327 -0.08281573197580376 -0.8485082959811158)
(0.6730518737622829 -0.07229244163053652 -0.8523587976478084)
(0.6716415872091522 -0.07741044135189769 -0.8505016645107031)
(0.5859121735950024 -0.0821243599204437 -0.7588643648842257)
(0.5762025360300228 -0.0755091540972708 -0.8257283719795981)
(0.5065887833519432 -0.07846523919571774 -0.7796198976647156)
(0.5869877410568344 -0.07669893561448345 -0.7606829841517067)
(0.505621104383783 -0.08401789608681813 -0.7778938436935532)
(0.5750076516677642 -0.08085426799569098 -0.8239315683633009)
(0.5848891462753757 -0.08785430981885223 -0.756912711650646)
(0.5035207707193085 -0.09608569246238512 -0.7740630754867841)
(0.572377129814252 -0.09247240006631889 -0.8199467521468026)
(0.5046169504562587 -0.08988084626554392 -0.7760389657941783)
(0.5737398805564575 -0.08649883115842739 -0.8220030249949644)
(0.5836760890595176 -0.0939161452435097 -0.7548218622074645)
(0.2971179213100867 -0.1255176580603928 -0.6641900885573273)
(0.2962588411458351 -0.134093846578614 -0.6620466338399204)
(0.4256047765717665 -0.1278127641264943 -0.7509182173806853)
(0.4268968702187093 -0.1196359471364482 -0.7533726594477297)
(0.3693675818261783 -0.1154987397897276 -0.6890215297677535)
(0.4439822305771485 -0.1060524096434143 -0.686723404517379)
(0.370201517879602 -0.1081220809696267 -0.6910301666136501)
(0.4430668376052547 -0.1132859390132251 -0.6845710715517546)
(0.4292464265672224 -0.1048394241748894 -0.7578300649479486)
(0.4281056719712484 -0.1119962172331433 -0.7556768391413231)
(0.3684970921728759 -0.1233731588209573 -0.6868689631215656)
(0.4411382631535821 -0.1292701885135216 -0.6797519051937777)
(0.4421459947889759 -0.1210074526390472 -0.6822251436099926)
(0.3675694892882592 -0.1318020528681385 -0.6845762345876696)
(0.6668258312186757 -0.09460861017195177 -0.8441019963356561)
(0.6649917818928781 -0.1010691625869197 -0.8416724376842575)
(0.6609641837817209 -0.1153456566530877 -0.836293074270933)
(0.6630504683505976 -0.10796637268069 -0.8390679901747979)
(0.5753006423076995 -0.1397523139151748 -0.738647482061309)
(0.564125925349972 -0.1287473447853774 -0.8073177990103303)
(0.4970637603461644 -0.1337644899915668 -0.761901914775172)
(0.5621271314426796 -0.1376596179544105 -0.8042535575703024)
(0.5769848700106299 -0.130717050507427 -0.7418341298128117)
(0.4955050954866901 -0.1430227416537199 -0.7589455759737345)
(0.5737721546553916 -0.1495230243026793 -0.735175522103775)
(0.5577426827789185 -0.157745980075776 -0.7974444877842922)
(0.4921717887301429 -0.1638886556027726 -0.7523596229870807)
(0.560015282536765 -0.1472961122775526 -0.8009577839624197)
(0.4939149224663796 -0.1530327921054519 -0.7557590989357972)
(0.571915487572066 -0.1601114311377974 -0.7314774753527905)
(0.5799021238241616 -0.114505023927522 -0.7475855775193874)
(0.5659858386515362 -0.1204702661553168 -0.8101952216375016)
(0.4984888147243395 -0.1251669747437306 -0.7646774698325335)
(0.4998788079196326 -0.1171614159311168 -0.7672584687636154)
(0.567745762278236 -0.1127633972028361 -0.8128757776254799)
(0.5783845137355982 -0.1223213193552225 -0.7448239172726578)
(0.5811720474530279 -0.1071970144896917 -0.7501736474105515)
(0.5023879251397694 -0.1026722279231338 -0.7719415260631405)
(0.5709341997684025 -0.09881388735998187 -0.8177418761185303)
(0.582532321447692 -0.1003521151204482 -0.7525751065184327)
(0.501151580507204 -0.1096804173377138 -0.7696835698462021)
(0.5693845472137017 -0.1055608715704035 -0.8153937653271459)
(0.2943824928643949 -0.1532292814160158 -0.6573130995027151)
(0.2953497087999729 -0.1433049481319222 -0.6597564709990468)
(0.4242363802329835 -0.1365943796200499 -0.7482896588216315)
(0.4227729764491918 -0.1460530127619525 -0.7454875267238261)
(0.3645167078936774 -0.1611502294818118 -0.6766725552110848)
(0.4367695006877665 -0.1692345156245528 -0.6677525048896517)
(0.4379544213458321 -0.1580307565401721 -0.6710643952845737)
(0.3633867503653703 -0.1725899730318613 -0.6736573707700656)
(0.3655788474371484 -0.1506059961505372 -0.6794931625433959)
(0.440134466307039 -0.1381438390624555 -0.6770486890609771)
(0.3666051746584663 -0.1408543500610779 -0.68211634793901)
(0.4390351781134056 -0.1476993854771708 -0.6741957969218437)
(0.4195640938853396 -0.1673739958852249 -0.7392721432678154)
(0.4212232660137847 -0.1562799839001173 -0.7424815713340398)
(0.5553416188094975 -0.1691335842189619 -0.7936544445175606)
(0.490405328043006 -0.1757173327890163 -0.7486832779452086)
(0.5702689406287287 -0.1716510754507521 -0.7274135223970239)
(0.4356274887999839 -0.181440522129463 -0.6640961858020084)
(0.3622247012163675 -0.1850531359007939 -0.6704047610453983)
(0.4178070861982459 -0.1794619447109836 -0.7358208395179274)
(0.4401257536600123 -0.02467730084835023 -0.7781637319940903)
(0.4403705416682868 -0.0212508827659895 -0.7786158299037361)
(0.3786114187348261 -0.02190761936870075 -0.7103825432147093)
(0.4530650273766475 -0.02496476152183151 -0.7068451759902679)
(0.3784200942593133 -0.0254450747440304 -0.7099665814723013)
(0.4532851618684961 -0.0214940435092486 -0.7072776815523077)
(0.306223068141895 -0.02228065301422457 -0.6863494469977584)
(0.3060579596466917 -0.02588248742006315 -0.6859547196143265)
(0.3063614161165506 -0.01874030099062915 -0.6866810430518036)
(0.4407481139563524 -0.01456611075840254 -0.7793151482515581)
(0.4405774836303157 -0.01788327958874037 -0.7789995356831292)
(0.4536345251109246 -0.01471892555566386 -0.7079318971967242)
(0.3789095386934406 -0.01500472603836737 -0.7110143643982519)
(0.3787738511016999 -0.01843037879559241 -0.7107322221764035)
(0.4534722963708256 -0.01808114329446535 -0.7076423472472941)
(0.6851500881126822 -0.01315541071210817 -0.8682719806535013)
(0.6848765288448575 -0.0161494039358305 -0.8679144959755027)
(0.6841545848764005 -0.02227912189785761 -0.8669695267827372)
(0.6845455301379069 -0.01918814660413601 -0.8674801318983147)
(0.5960019732426141 -0.01394225485173595 -0.7760064143821639)
(0.5149236818604409 -0.01426879730307583 -0.7943505571830884)
(0.5957793339827154 -0.01712280895950395 -0.7756793252476858)
(0.5147306460331038 -0.01751856044057322 -0.7940273915114239)
(0.5862236952265251 -0.01686477321254155 -0.8407711881106651)
(0.3066460852467534 -0.005019348471601779 -0.6873748053676035)
(0.6856325638967251 -0.004351920391102361 -0.8689030134797726)
(0.6853661140003405 -0.01019633328587679 -0.8685548381390837)
(0.6855261915716752 -0.007264719821742623 -0.8687641633288556)
(0.5961727558696481 -0.01080025463181373 -0.776249609966166)
(0.5150762738971266 -0.01105841280316592 -0.794602382681782)
(0.5963086983609935 -0.007692354375119084 -0.7764269857240556)
(0.5867680826476447 -0.007587226543968398 -0.8415831362694598)
(0.5151910496799943 -0.007879087473788821 -0.7947859868066861)
(0.5963979329413116 -0.004609915845449735 -0.7765377052058019)
(0.5868567280709795 -0.004545936758365946 -0.8417149207590767)
(0.5152682592749833 -0.004721935798123572 -0.7949065533061438)
(0.3065581214295857 -0.01180550422094678 -0.6871540857684552)
(0.3066145118775188 -0.008396508216917202 -0.6872938848072957)
(0.4408828068484912 -0.01128946223270126 -0.779564676182722)
(0.4409828451289721 -0.008044494297271143 -0.779749817496079)
(0.3791577174554018 -0.004957104189015342 -0.7114728188533688)
(0.4539512473495994 -0.004866467067555507 -0.7083994985858302)
(0.4410495456496419 -0.004821218749651501 -0.7798728170891724)
(0.4537691936277944 -0.01139971729561566 -0.7081512867956195)
(0.3790184450584968 -0.01162211348283783 -0.7112297545910534)
(0.3791008315412904 -0.008275623157720884 -0.7113802958229127)
(0.4538758779352161 -0.008118335396996921 -0.7083038323731154)
(0.5793882130338887 -0.0307447367197744 -0.6985647680179413)
(0.5195613219609033 -0.0278954582937227 -0.7117386339281089)
(0.5680425967807748 -0.02754990570105954 -0.6647844658200757)
(0.5323119227474792 -0.03170821814371916 -0.6573327180370947)
(0.5678831517849007 -0.03104012848063476 -0.6643991430090542)
(0.5192650917263397 -0.0314329696877903 -0.7111681441565889)
(0.5797195102009763 -0.0272935775225118 -0.6989795614841761)
(0.6689490357023662 -0.02965156960498351 -0.7608301654052806)
(0.681836046126023 -0.02592348534790598 -0.8151333320477516)
(0.7034628146543885 -0.02566207536756793 -0.7415332090494983)
(0.7374381346120464 -0.02843885743776971 -0.7732255495792389)
(0.7031999718959242 -0.02890286261427419 -0.7411138018370537)
(0.6813762015460156 -0.02921027369315162 -0.8144914614617734)
(0.6692672173140222 -0.02631337134319482 -0.7614657165824937)
(0.5790528379128608 -0.03429935254411372 -0.6976522378044158)
(0.5320228567903127 -0.03536465114373746 -0.6566569218869279)
(0.5185685401031369 -0.03878855444573318 -0.7097489815253708)
(0.5673197772838185 -0.03829195695280623 -0.6629922863458351)
(0.5675129610111315 -0.03461412769231938 -0.6634793235445662)
(0.5786464393309881 -0.03793602665764997 -0.6971312265204032)
(0.5189329743342874 -0.03506096112773372 -0.7104647247761161)
(0.6684222155398604 -0.03307014136002696 -0.7600824237246672)
(0.7369260075107058 -0.03173048874460896 -0.772249600086232)
(0.6802799109390878 -0.03604550638131313 -0.8129201746404641)
(0.7022755707480738 -0.03565899058438783 -0.7395821302572412)
(0.7026008424975614 -0.03224347107602976 -0.7401094328828997)
(0.6808511987587564 -0.03258165451262777 -0.8137227975247183)
(0.6680274967563977 -0.03658726804028849 -0.7592847287921457)
(0.6661676988407883 -0.04782206989155873 -0.7562844537009721)
(0.6998465985983596 -0.05051483259693373 -0.735441054477885)
(0.6773771916486017 -0.05108766233953174 -0.8087122380828071)
(0.7342369141602055 -0.04588060552868765 -0.7683102323008409)
(0.6781897939274397 -0.04712409029006539 -0.8098680778973527)
(0.7003036861521869 -0.04661046669242609 -0.7362053368113862)
(0.6656088406983895 -0.05184376742411145 -0.7551310118041193)
(0.5772857506974483 -0.04959672170193135 -0.6940049531710704)
(0.5658817975030574 -0.05423588248851479 -0.6591738603982057)
(0.5307303895782828 -0.0511375501505187 -0.6532406294967229)
(0.5167481287553777 -0.05497782318529677 -0.705930305936358)
(0.517259176410275 -0.05071194821339214 -0.706967664930113)
(0.5661442829807569 -0.05003444031262572 -0.6598836629176726)
(0.5767185780290145 -0.0537556959443469 -0.6932503996957262)
(0.5777583440137044 -0.04557090662674635 -0.6953678993500532)
(0.5181677283699097 -0.04263165247414408 -0.7088816203681795)
(0.5668805535820991 -0.04207618174218209 -0.6618525412624591)
(0.5311181902148254 -0.04699674374429982 -0.6542510478968278)
(0.5782435973281651 -0.04170030443479784 -0.6960010950503799)
(0.5177316774001788 -0.04660028076528188 -0.7080116922791416)
(0.5666525596290225 -0.04598887148182772 -0.661258711109172)
(0.6669168333395824 -0.04395035700488401 -0.7573935952566784)
(0.6796397388286818 -0.03961657496354176 -0.8119749138342658)
(0.7349741303223635 -0.04215300288322566 -0.7697603214989738)
(0.7015498725421693 -0.03919556328201051 -0.7383409065064626)
(0.6789513042484483 -0.04330393063370808 -0.8110020936381137)
(0.7011598596909048 -0.04283004875141844 -0.7376996819609295)
(0.6673915649645471 -0.04020743566928921 -0.7583624654606502)
(0.6640954199066516 -0.06038621378919894 -0.7524636822314792)
(0.6988562683021284 -0.05459435433199814 -0.7336712698842025)
(0.6764871884885871 -0.05521369672353262 -0.8073738302470216)
(0.7315330780420091 -0.05791834123133806 -0.7647753349791294)
(0.6983295780250536 -0.05882804507495948 -0.732772258766112)
(0.6755421772558907 -0.05951489006558566 -0.8060191369262162)
(0.6647431162840758 -0.05602417713387791 -0.7538185064706396)
(0.5755231962411531 -0.06261219854655389 -0.6907462595652547)
(0.5653069977414507 -0.0586010448787683 -0.6575418574886123)
(0.5162015277338143 -0.05941815200225156 -0.7046934439230563)
(0.5295268606828033 -0.06456462609069044 -0.6497964086057626)
(0.5650111358338672 -0.06315366057953931 -0.6567044611484499)
(0.5761750063453183 -0.05810188707387409 -0.6916334062887534)
(0.515612304131839 -0.06404577344691911 -0.7034728115477148)
(0.6631104443427199 -0.06494259720506436 -0.7509274560162903)
(0.6734286889237354 -0.06872596745949931 -0.8028845427604824)
(0.7305490557980105 -0.06230503706305751 -0.7627651494196904)
(0.6966029462014477 -0.06790561334464329 -0.7296505662547236)
(0.6972018278962 -0.06327180690619152 -0.7306987434449103)
(0.6745155869560898 -0.06401379345571025 -0.8044572149173599)
(0.6623686804137798 -0.06971837958988243 -0.7493508682934127)
(0.5749084179493302 -0.06734768824364862 -0.6888489741927677)
(0.5143200537442996 -0.07395064825498508 -0.700603095131631)
(0.5290531913407195 -0.06943284950800578 -0.6483848869508027)
(0.5640474374962999 -0.07288439402642831 -0.6538101776603417)
(0.564374619883072 -0.06790654040717178 -0.6547886493340672)
(0.5149898931872943 -0.06888471486036417 -0.7020242350695439)
(0.5741698752509883 -0.07228434317355464 -0.6878163460351804)
(0.5719077719779918 -0.08873312400188062 -0.6818519255549738)
(0.5618961676632845 -0.09551993738217125 -0.6465384258878535)
(0.5270535462912281 -0.09144706626279517 -0.6417797506636422)
(0.5112609919024921 -0.09704126506251373 -0.6934515081111781)
(0.512096282704729 -0.09078761019684851 -0.6953407289414663)
(0.5622726952890043 -0.08939698328537453 -0.6478534178518472)
(0.5709935440124205 -0.09482185683146575 -0.6804771948976066)
(0.6604214159197808 -0.08001117789063286 -0.7457424536435813)
(0.6722564498418677 -0.07367874913463707 -0.8010757948531007)
(0.6953355129698513 -0.07279208203511238 -0.727237907836543)
(0.7270057719939791 -0.07674816683919827 -0.757969205391646)
(0.6946620257512036 -0.07791199895815036 -0.7260225309540135)
(0.6612629971097804 -0.0747320228015976 -0.7475659455292025)
(0.6710167144163642 -0.07889155031558664 -0.7992617148862744)
(0.5726588170304283 -0.0829479771705848 -0.6844135774916332)
(0.5136216337960927 -0.07927354247684133 -0.69892215880112)
(0.5633575001719181 -0.07810745531578468 -0.6515783374433159)
(0.5275712387965639 -0.08550639585314447 -0.6436852768407989)
(0.5734852419012266 -0.07749273086387157 -0.685607111869157)
(0.5128696418651673 -0.08487331812191812 -0.6972806104313906)
(0.5630025884964703 -0.08360145313362168 -0.650442507458783)
(0.5643407299521004 -0.1506602613098359 -0.6598132587151291)
(0.5578234520412197 -0.161807396390861 -0.6234048660324574)
(0.5230499202020101 -0.1550643612202831 -0.6209729616839292)
(0.503429553413527 -0.1652521517488868 -0.6712085917194218)
(0.5581031683031346 -0.1513053894518905 -0.6258469498865633)
(0.504554266291016 -0.1543569847999426 -0.6745922977455142)
(0.5631627791881469 -0.1612141498035576 -0.6573464228856544)
(0.56521715624216 -0.1408485599330796 -0.6645273287136951)
(0.5066207849100582 -0.1349866210965003 -0.6809719324377341)
(0.5589741904521683 -0.1325269307794076 -0.6326935106434737)
(0.5232262368529658 -0.1450124538505136 -0.624486071961441)
(0.5586210322624591 -0.1415463193292639 -0.6306235266070688)
(0.5663598822216668 -0.1318180496553864 -0.666642235971206)
(0.5055496283364148 -0.1442922736783798 -0.678070029604007)
(0.5691829701645589 -0.1081801127725992 -0.6759269189051227)
(0.5611475440081384 -0.1020153824809177 -0.6435374922292348)
(0.5104153907597733 -0.1036816500704369 -0.6912162419262369)
(0.5253702889501554 -0.1114583572388696 -0.6354992909621646)
(0.5701826635335497 -0.101313667941935 -0.6775096418581076)
(0.5607593933102973 -0.1089080389714942 -0.6420141042878577)
(0.5094967792663925 -0.1107399068188153 -0.689042579101079)
(0.5683241562203004 -0.1155430613450197 -0.6724827972161799)
(0.5075860350439227 -0.1263324072282106 -0.6839576319586572)
(0.5249068651683841 -0.1190121188986872 -0.6329371504724673)
(0.5596415979283905 -0.1241045843259626 -0.6367586193972682)
(0.5600252639524171 -0.1162638825323678 -0.6385291698817689)
(0.5085850907905827 -0.1182768157219529 -0.6864637420793838)
(0.5672456766475511 -0.1233713604563449 -0.6706571056310883)
(0.5612040780298648 -0.1852916011802446 -0.6488470134804558)
(0.5575900983366534 -0.1732647390271665 -0.6177327250302111)
(0.5024478885412429 -0.1771267815622842 -0.6671212819222238)
(0.5219190876017555 -0.1905549821908462 -0.6092670022029797)
(0.5623597499249298 -0.1727727344767247 -0.6517529128014187)
(0.5574579541305368 -0.1856580646647028 -0.6148145827597853)
(0.5013096591633353 -0.1900814663036276 -0.6631367678063257)
(0.580254694401794 -0.02059227014573931 -0.6999878376276483)
(0.5198284633345315 -0.02443383871018515 -0.712283406026632)
(0.56834879235196 -0.02414068197625249 -0.6654883441920889)
(0.5329351896361777 -0.02122152259283606 -0.6588197119305219)
(0.5799920403455082 -0.02390150880398814 -0.6996794949516386)
(0.5684797287466623 -0.02079717574925711 -0.665768168692314)
(0.5200607588504423 -0.02104089663637963 -0.7127090092329497)
(0.6831620377894878 -0.01340270757587343 -0.816980177752674)
(0.6704400974765782 -0.01359950751364973 -0.7632335626391452)
(0.7046585112068572 -0.01329136374800739 -0.7433629621818936)
(0.6702647349745255 -0.01670290786744443 -0.7629265319480811)
(0.739016741417441 -0.0160261731249208 -0.7753271284301265)
(0.7045082950864298 -0.01629855251722855 -0.743163063020841)
(0.68291326383192 -0.0164561601188838 -0.8166513019616866)
(0.6699355472368211 -0.01984945732066722 -0.7625199204361353)
(0.6822510715749356 -0.02270767573869318 -0.8157331475724322)
(0.7039402999095213 -0.02247515870285886 -0.7423086644819675)
(0.7387084382345884 -0.01905380491380012 -0.7747934743817032)
(0.6696907053927788 -0.02305128754869717 -0.7620450604037344)
(0.7041441142391471 -0.01937016240297402 -0.7426208629887719)
(0.6826037557928094 -0.01955615581192853 -0.8162188909427438)
(0.5688511396341062 -0.0142746696011074 -0.6664035113671949)
(0.5806788197371637 -0.01411358997672789 -0.7006600069918663)
(0.5204460323093013 -0.01441621333962994 -0.7133636676019391)
(0.5804746283851346 -0.01732029608272622 -0.7004651546434472)
(0.5331504818830628 -0.01785111483739294 -0.6591638342283231)
(0.5687380119240459 -0.01751193361043822 -0.6662419378262513)
(0.5202700136135037 -0.01770320522436322 -0.7130900312742977)
(0.7051523756673634 -0.004397599825136038 -0.7438980170095767)
(0.7397775647756234 -0.004315827780412513 -0.7761363040974759)
(0.6709170438448637 -0.004498599890370671 -0.7637098289348867)
(0.6836225465300937 -0.004431829441943236 -0.8175478323960828)
(0.5337011306681365 -0.004811284351187228 -0.6597013574501897)
(0.5811002931927588 -0.00466750697299323 -0.7010990960022194)
(0.5693079026616034 -0.004741066434704917 -0.6667813745694817)
(0.5208171180246309 -0.004770108205661136 -0.7137960155227728)
(0.5335750641075109 -0.008011143803642415 -0.6596532947166726)
(0.569075385561423 -0.01107470226271933 -0.6666395459537282)
(0.5808543527860329 -0.01092896298376207 -0.7009112593517889)
(0.520604868262432 -0.01116868946419404 -0.7135766236735894)
(0.5809969302320022 -0.00778999831677094 -0.7010012151616232)
(0.5691667194739841 -0.007892436704281629 -0.6666965686281314)
(0.5207253274330347 -0.007956322757925693 -0.7137087765350891)
(0.683369427766052 -0.01038466401729375 -0.817245658907626)
(0.6706796872066474 -0.0105367874977812 -0.7634630440714826)