/*--------------------------------*- C++ -*----------------------------------*\
  =========                 |
  \\      /  F ield         | OpenFOAM: The Open Source CFD Toolbox
   \\    /   O peration     | Website:  https://openfoam.org
    \\  /    A nd           | Version:  7
     \\/     M anipulation  |
\*---------------------------------------------------------------------------*/
FoamFile
{
    version     2.0;
    format      ascii;
    class       volVectorField;
    location    "0";
    object      grad(Phi);
}
// * * * * * * * * * * * * * * * * * * * * * * * * * * * * * * * * * * * * * //

dimensions      [0 1 -1 0 0 0 0];

internalField   nonuniform List<vector> 
12693
(
(-0.999999744331505 9.269222323710655e-06 0.0002229901472718267)
(-0.9999854358713683 8.030614172965611e-06 0.0001919932158862318)
(-0.9999758000448781 6.866460682093404e-06 0.0001631681307368247)
(-0.99996960226962 5.791965996729844e-06 0.0001368347489902885)
(-0.9999658437260144 4.809617565070338e-06 0.0001130044328965243)
(-0.9999637462417209 3.913991887858878e-06 9.149908473707242e-05)
(-0.9999627215516204 3.095025649102391e-06 7.203188819985404e-05)
(-0.9999623371926938 2.340138767209584e-06 5.425904504115576e-05)
(-0.9999622853001973 1.635533274796003e-06 3.781086106705307e-05)
(-0.9999623570447786 9.669264476278445e-07 2.230879627948637e-05)
(-0.9999624303785177 3.199114188086093e-07 7.373390701475397e-06)
(-1.000002200510694 2.730646977388282e-05 0.0002188031365642097)
(-0.9999877805055304 2.368473198079497e-05 0.0001886306116487855)
(-0.9999779842434808 2.027156736558115e-05 0.0001604932027654705)
(-0.9999716087707202 1.711420855972268e-05 0.0001347258384320119)
(-0.9999676754672236 1.42221012587274e-05 0.0001113585238099842)
(-0.999965418416056 1.15809634893848e-05 9.023202282549682e-05)
(-0.9999642563184454 9.162459374460078e-06 7.107700616282684e-05)
(-0.9999637603335388 6.930518477400977e-06 5.356522306436444e-05)
(-0.9999636242392519 4.845230912725946e-06 3.734058498812374e-05)
(-0.9999636397872382 2.865070093650351e-06 2.203650512955994e-05)
(-0.9999636826964192 9.48013974757858e-07 7.284247626283495e-06)
(-1.000027892084912 7.31602770980116e-06 0.0001874806121900904)
(-1.000012584991992 6.440581634510491e-06 0.0001638150306755906)
(-1.000001287042732 5.586444684624326e-06 0.0001410470194601878)
(-0.9999931389151683 4.772303840994143e-06 0.0001196355731978446)
(-0.9999873963201124 4.006724647108077e-06 9.976832549523616e-05)
(-0.9999834450615281 3.291266576200803e-06 8.144670613963947e-05)
(-0.9999807970518355 2.622835001152846e-06 6.455003317485598e-05)
(-0.9999790774502756 1.995368849637155e-06 4.888108278406742e-05)
(-0.9999780091770449 1.400997952009283e-06 3.419693069443886e-05)
(-0.9999773983543434 8.308028157740606e-07 2.022885053489489e-05)
(-0.9999771007512479 2.752935679843875e-07 6.694551951751201e-06)
(-1.000029589320315 2.158419677450881e-05 0.0001842118042171921)
(-1.000014272566188 1.901932776672858e-05 0.000161129562928196)
(-1.000002914685307 1.651071611259607e-05 0.0001388671412943042)
(-0.9999946799886759 1.411470517354018e-05 0.000117886123821767)
(-0.9999888409551707 1.185775054693202e-05 9.838173105808201e-05)
(-0.9999847947891248 9.745475716330714e-06 8.036515623809342e-05)
(-0.9999820608414909 7.769587297978886e-06 6.372602739051503e-05)
(-0.9999802689250346 5.912869592924454e-06 4.827713016874629e-05)
(-0.9999791447407705 4.15262655629487e-06 3.378489588334098e-05)
(-0.9999784959838849 2.462954729566888e-06 1.998924463003061e-05)
(-0.9999781776407136 8.161894395384108e-07 6.615939211117952e-06)
(-1.00004883035843 5.798473320640294e-06 0.0001555946085641149)
(-1.000033527806696 5.178822958166459e-06 0.0001377053128225295)
(-1.000021557340123 4.551236146245787e-06 0.0001199309547995055)
(-1.000012355202655 3.933662249267114e-06 0.0001027541336427215)
(-1.000005396481182 3.336600001419556e-06 8.643879350661774e-05)
(-1.000000222330196 2.764945995578409e-06 7.108606822271096e-05)
(-0.9999964502329527 2.219549650739493e-06 5.668085124827175e-05)
(-0.9999937743345483 1.698437559141348e-06 4.31280869836784e-05)
(-0.9999919608264553 1.197734668026999e-06 3.027970276815482e-05)
(-0.9999908416513333 7.123347119001737e-07 1.795389222385192e-05)
(-0.9999902652043552 2.363813794703654e-07 5.948647076253502e-06)
(-1.000050004913615 1.712904403547646e-05 0.0001530636071887351)
(-1.000034744620701 1.531044514758462e-05 0.0001355841828984119)
(-1.000022772091127 1.346433480674806e-05 0.000118178003170779)
(-1.000013540088465 1.164430530459653e-05 0.0001013247211705642)
(-1.000006536469364 9.882013399029378e-06 8.528997842098208e-05)
(-1.000001311823426 8.192530728684096e-06 7.017924714374782e-05)
(-0.9999974903454457 6.578896110963972e-06 5.59830778854116e-05)
(-0.9999947707911712 5.035725692505611e-06 4.261258037450837e-05)
(-0.9999929224064167 3.551940731282503e-06 2.992590755009028e-05)
(-0.9999917790637918 2.112762400158668e-06 1.774733460406181e-05)
(-0.9999911892394105 7.011492553221679e-07 5.88074235869774e-06)
(-1.000064278754089 4.628769543384346e-06 0.000127259720497449)
(-1.000049522347677 4.188282459994966e-06 0.0001138667984962352)
(-1.000037486478311 3.724890180232592e-06 0.0001001525650323434)
(-1.000027827225079 3.254174546240035e-06 8.656186967371459e-05)
(-1.000020195387869 2.786495987112976e-06 7.33731383602153e-05)
(-1.000014265787438 2.328001971367853e-06 6.073233579474462e-05)
(-1.000009753532404 1.881585872750469e-06 4.868459476644108e-05)
(-1.000006421496916 1.447718441537647e-06 3.72011623215854e-05)
(-1.000004082450189 1.02513047572063e-06 2.620109385472243e-05)
(-1.00000259837631 6.113542549125206e-07 1.556811568473214e-05)
(-1.000001819683866 2.031503314288479e-07 5.163557133099783e-06)
(-1.00006509458765 1.368918554306931e-05 0.0001253171748682694)
(-1.000050404084635 1.239440237691517e-05 0.0001122106495138674)
(-1.00003839769924 1.102936226793353e-05 9.876232219131132e-05)
(-1.000028742585738 9.640393250183222e-06 8.541224541806063e-05)
(-1.000021098767556 8.258473079409286e-06 7.243775171713087e-05)
(-1.00001514836468 6.902135807169678e-06 5.998613151384979e-05)
(-1.000010612032074 5.580270708763746e-06 4.810531192681318e-05)
(-1.000007256708596 4.294567039081039e-06 3.677014922014598e-05)
(-1.000004898031033 3.041529206442104e-06 2.590370587758194e-05)
(-1.000003399904976 1.814083587279806e-06 1.539387122936215e-05)
(-1.000002613290449 6.028476401836616e-07 5.106173004162657e-06)
(-1.00007557476186 3.736016329807041e-06 0.0001021516814385518)
(-1.000061603074856 3.420331881652164e-06 9.224262475678755e-05)
(-1.000049837444975 3.074966450356194e-06 8.181101199891196e-05)
(-1.000040091037422 2.712798598408217e-06 7.123604667315112e-05)
(-1.000032148498414 2.343170975540203e-06 6.077544460372678e-05)
(-1.000025792607489 1.972382961914049e-06 5.058457045071823e-05)
(-1.000020821805479 1.604242305151497e-06 4.073672747354202e-05)
(-1.000017060817636 1.240599515766708e-06 3.124211053016764e-05)
(-1.000014366481901 8.81827472239911e-07 2.206428363112796e-05)
(-1.000012630528653 5.272354648593516e-07 1.313392873637939e-05)
(-1.000011710557342 1.754217589565299e-07 4.360143546854647e-06)
(-1.000076145294642 1.106002820404897e-05 0.0001006785488795334)
(-1.000062247860973 1.013079468314975e-05 9.096829862205776e-05)
(-1.000050527581083 9.112122588780276e-06 8.072692139275354e-05)
(-1.00004080482217 8.042227299152663e-06 7.032874582527384e-05)
(-1.000032870658765 6.94893689120358e-06 6.002934113230799e-05)
(-1.000026513278923 5.851102796802143e-06 4.998388350189285e-05)
(-1.000021535469964 4.760204474357348e-06 4.026681265209645e-05)
(-1.000017765311722 3.681916685043095e-06 3.089030561958508e-05)
(-1.000015062122907 2.617523799759615e-06 2.182041573924757e-05)
(-1.000013319365696 1.5651449512501e-06 1.299059761816383e-05)
(-1.000012395413629 5.207806835344745e-07 4.312866573162465e-06)
(-1.000077251371779 1.794021253741772e-05 9.781330907788376e-05)
(-1.000083730744493 3.064693504785027e-06 7.981906021488691e-05)
(-1.000070589469596 2.83523110766746e-06 7.261764140537991e-05)
(-1.000059243291326 2.573760618646422e-06 6.484704093388666e-05)
(-1.000049614062738 2.290704184286552e-06 5.681171166305172e-05)
(-1.000041584416813 1.994150048508705e-06 4.873056239458162e-05)
(-1.000035020173038 1.690045940459588e-06 4.074680607838948e-05)
(-1.000029786794465 1.38248871051926e-06 3.294029915386689e-05)
(-1.000025760813752 1.074049540587852e-06 2.534026643787946e-05)
(-1.000022837352761 7.660980251886954e-07 1.793721725806445e-05)
(-1.000020934807112 4.591069283718139e-07 1.069353624413176e-05)
(-1.000019920074865 1.529318318137689e-07 3.552693233754436e-06)
(-1.000084134622221 9.080658126975024e-06 7.872321859017936e-05)
(-1.000071068270246 8.404363970572146e-06 7.165824242047968e-05)
(-1.000059774378922 7.632235410508262e-06 6.402176970570362e-05)
(-1.000050179365294 6.795171611720157e-06 5.611405842001385e-05)
(-1.000042170232105 5.917219202827465e-06 4.81517308693421e-05)
(-1.000035616697748 5.016115866264053e-06 4.027718394433529e-05)
(-1.000030387523451 4.10412916950465e-06 3.257052925861207e-05)
(-1.000026361905399 3.189007937037342e-06 2.506198875914024e-05)
(-1.00002343701432 2.274936390207647e-06 1.774355829140843e-05)
(-1.000021532723755 1.363434875257628e-06 1.057941533171061e-05)
(-1.000020516783849 4.541885771753933e-07 3.515001461608524e-06)
(-1.000084919284263 1.475673699201902e-05 7.65883201813183e-05)
(-1.000072001681745 1.366930076411686e-05 6.978710375752514e-05)
(-1.000060812253876 1.242314901070629e-05 6.241056623189218e-05)
(-1.000089494236897 2.572511652587684e-06 5.975700390533152e-05)
(-1.000077109809111 2.401667088792793e-06 5.468633297327285e-05)
(-1.000066207872208 2.198677938517685e-06 4.909869439762413e-05)
(-1.000056783104481 1.971979152278469e-06 4.322406836950612e-05)
(-1.000048787150626 1.728491492842216e-06 3.723458010001503e-05)
(-1.000042146808703 1.473649835322063e-06 3.124897767049533e-05)
(-1.000036778578678 1.21153219593356e-06 2.533973190422088e-05)
(-1.000032599723885 9.45045726802548e-07 1.95411872080501e-05)
(-1.000029536309601 6.761392355404806e-07 1.385775659026388e-05)
(-1.000027528785677 4.0602324494004e-07 8.271621364864111e-06)
(-1.000026453339784 1.353874541537404e-07 2.749745520631024e-06)
(-1.000089786482575 7.628106556668403e-06 5.896926485019604e-05)
(-1.000077474361603 7.123996449164739e-06 5.399005799334755e-05)
(-1.000066626914512 6.523926018895965e-06 4.849443821708384e-05)
(-1.000057241648108 5.852895769410263e-06 4.270913012987131e-05)
(-1.0000492731359 5.131462713892884e-06 3.680427826943385e-05)
(-1.00004265095202 4.375806858055646e-06 3.089768803885872e-05)
(-1.000037294064978 3.598100888688384e-06 2.5061685636418e-05)
(-1.000033121817367 2.807052502577097e-06 1.933105485074259e-05)
(-1.0000300619311 2.008529371369289e-06 1.371105595696761e-05)
(-1.00002805608527 1.206208544840914e-06 8.184988361242641e-06)
(-1.000026981322474 4.022209262663675e-07 2.721101911451069e-06)
(-1.000090355375169 1.241617011392974e-05 5.743262008520064e-05)
(-1.000078186385136 1.160350110286987e-05 5.263055890955652e-05)
(-1.000067447195371 1.063275741572602e-05 4.731356558439454e-05)
(-1.000058140756203 9.544503906538368e-06 4.17019852528576e-05)
(-1.000050227312315 8.372236359231333e-06 3.596204719632019e-05)
(-1.000093401038474 2.228306727512548e-06 4.1447276002109e-05)
(-1.000081628433015 2.095943209076067e-06 3.809563464721843e-05)
(-1.000071114922523 1.93215550772567e-06 3.434035115982795e-05)
(-1.000061901895404 1.743915225560514e-06 3.034093310994022e-05)
(-1.000053987189323 1.537211689221961e-06 2.622015920595129e-05)
(-1.000047339837241 1.31699363483177e-06 2.206576286498991e-05)
(-1.000041912720301 1.087204636745687e-06 1.793424930769627e-05)
(-1.000037652859614 8.508815430018952e-07 1.385579479262005e-05)
(-1.000034509403098 6.102922447746285e-07 9.839498571228422e-06)
(-1.000032439532862 3.670951033749737e-07 5.878550453086674e-06)
(-1.000031327333913 1.225094999806309e-07 1.955112811308034e-06)
(-1.000093620910905 6.611532457238875e-06 4.091773746577866e-05)
(-1.00008191719783 6.220574672118983e-06 3.762422702356885e-05)
(-1.000071458197066 5.735944729788157e-06 3.392852198005789e-05)
(-1.000062287030954 5.17830676253297e-06 2.998785262215056e-05)
(-1.000054403511413 4.565444323444736e-06 2.592351953110444e-05)
(-1.00004777866869 3.912077115244859e-06 2.182245636705238e-05)
(-1.000042367250682 3.229957437579817e-06 1.774091093980608e-05)
(-1.00003811791471 2.528156108051133e-06 1.370921440874338e-05)
(-1.000034981154613 1.813466252891016e-06 9.736919648033646e-06)
(-1.00003291517616 1.090874440693524e-06 5.817875669176994e-06)
(-1.00003180489168 3.640643959378181e-07 1.93503562428015e-06)
(-1.000094049670099 1.077573827091584e-05 3.988376915857484e-05)
(-1.000082482131049 1.014402643935345e-05 3.670300948609756e-05)
(-1.000072131133735 9.358417133197366e-06 3.31231055550099e-05)
(-1.0000630431333 8.45245720526578e-06 2.929683149328096e-05)
(-1.000055221763229 7.455114166341214e-06 2.534257731309493e-05)
(-1.000048641936955 6.390451168578319e-06 2.134568373951353e-05)
(-1.000043262043283 5.277758793417101e-06 1.736186335761076e-05)
(-1.000039033938518 4.131999339266333e-06 1.34217192537963e-05)
(-1.000095817469846 2.010266020655327e-06 2.437695043211075e-05)
(-1.000084470552698 1.901136139455226e-06 2.247011682146871e-05)
(-1.000074239527372 1.76139508107222e-06 2.030881155760603e-05)
(-1.000065193303291 1.597063248827696e-06 1.798656050040711e-05)
(-1.000057357862666 1.413494543975509e-06 1.557666129350455e-05)
(-1.000050728643955 1.215276111538527e-06 1.313264249889517e-05)
(-1.000045281759895 1.006213114538823e-06 1.069007923258121e-05)
(-1.000040983572862 7.893768609707958e-07 8.269170822795909e-06)
(-1.000037798455524 5.671971511271053e-07 5.877646530104295e-06)
(-1.000035694756643 3.41583486282744e-07 3.513722614316148e-06)
(-1.00003456221544 1.14064242751827e-07 1.168967439886489e-06)
(-1.000095994062616 5.967238481119319e-06 2.407206353045438e-05)
(-1.000084713191928 5.644651039915597e-06 2.219740630293353e-05)
(-1.000074536016571 5.23088123722121e-06 2.006951160249028e-05)
(-1.000065532543502 4.743776835962546e-06 1.778056860578508e-05)
(-1.00005773015345 4.199232864338593e-06 1.540297392979473e-05)
(-1.000051125796632 3.610887640516647e-06 1.298973575985489e-05)
(-1.000045697065578 2.990071857461964e-06 1.057622111153487e-05)
(-1.000041411665491 2.345946618844939e-06 8.182664478685014e-06)
(-1.000038235103366 1.685773822586323e-06 5.81701064360847e-06)
(-1.000036136608009 1.015273718771518e-06 3.477818144642846e-06)
(-1.000035006715184 3.390363569375031e-07 1.157080284528689e-06)
(-1.000096338912795 9.734975999337437e-06 2.34763649315e-05)
(-1.00008518850101 9.212778218252825e-06 2.166417916049262e-05)
(-1.000075117879721 8.540967223042245e-06 1.96012801597224e-05)
(-1.000066199160454 7.748536317874447e-06 1.737724313363818e-05)
(-1.000058462429631 6.861378880447382e-06 1.506269370620984e-05)
(-1.000051907575936 5.901777020251992e-06 1.270960843626468e-05)
(-1.000046515077392 4.888302434630594e-06 1.035293149205114e-05)
(-1.000042255263446 3.83602622658133e-06 8.012950127101301e-06)
(-1.000039095861602 2.756947473391637e-06 5.698015974432842e-06)
(-1.000037007825672 1.66056698784723e-06 3.407343475691674e-06)
(-1.000096971204251 1.904586437963583e-06 5.362727827048777e-06)
(-1.000085841862564 1.806383854121055e-06 4.950296861102522e-06)
(-1.000075758605855 1.678065477342185e-06 4.480045614669305e-06)
(-1.000066803051034 1.525185376285098e-06 3.972499216441778e-06)
(-1.000059014461539 1.352777564497237e-06 3.443886147415519e-06)
(-1.00005240094009 1.165239090516239e-06 2.906182700437004e-06)
(-1.000046949887394 9.662929444631089e-07 2.367465646788596e-06)
(-1.000042637164912 7.590132167222209e-07 1.8324454600448e-06)
(-1.000039434688743 5.458962794623295e-07 1.303084556840863e-06)
(-1.000037316379063 3.289634909775162e-07 7.792378709648993e-07)
(-1.000036174908268 1.098848822617544e-07 2.592816199290343e-07)
(-1.000097127564848 5.654866540839204e-06 5.29637379054588e-06)
(-1.000086062698041 5.364450416869726e-06 4.890804397059218e-06)
(-1.000076032778967 4.984354600168204e-06 4.427726177243186e-06)
(-1.000067120230686 4.531046556075093e-06 3.927371130652569e-06)
(-1.000059365445432 4.019471428516298e-06 3.40576661027953e-06)
(-1.000052777805537 3.462700272157512e-06 2.874769395223218e-06)
(-1.00004734600308 2.871815149104645e-06 2.342404556696575e-06)
(-1.00004304709698 2.25598027745978e-06 1.813384335687713e-06)
(-1.000039854031173 1.622649911701589e-06 1.289713023075559e-06)
(-1.000037741532603 9.778709601034283e-07 7.713158621228305e-07)
(-1.000036603051461 3.266490339754468e-07 2.56658111958841e-07)
(-1.000097433158399 9.230072811360554e-06 5.166687505907541e-06)
(-1.000086495611705 8.759456457268647e-06 4.774446814915072e-06)
(-1.000076571174619 8.141770505650594e-06 4.325328897622189e-06)
(-1.000067743812127 7.403777280145801e-06 3.838992626995233e-06)
(-1.000060056099166 6.569826173683865e-06 3.331070349761516e-06)
(-1.000053519904962 5.6612680714272e-06 2.813182352018517e-06)
(-1.000048126439389 4.696256523491099e-06 2.293249367750547e-06)
(-1.000043855101019 3.689851205092496e-06 1.775983825106536e-06)
(-1.000040680845327 2.654346523433248e-06 1.263468861044224e-06)
(-1.000038579979919 1.59975744497586e-06 7.557644155249199e-07)
(-1.000037447490009 5.344091143543088e-07 2.515075068976774e-07)
(-1.000098727232754 3.249383473402753e-06 8.605713454416107e-05)
(-1.000103347658478 2.701391765323498e-06 6.402316854040713e-05)
(-1.000106374113085 2.321478976915467e-06 4.420082508097293e-05)
(-1.000108196023598 2.082305228758414e-06 2.591717343439897e-05)
(-1.000109050828795 1.966812300033452e-06 5.69293050132522e-06)
(-1.000020248837978 1.054756300966637e-05 0.0002553654452707287)
(-1.00002271990257 3.103238301950853e-05 0.0002502121010420474)
(-1.000048205507037 8.180090330912614e-06 0.0002112084359819455)
(-1.000049829969231 2.410809017647442e-05 0.0002072855381621181)
(-1.000068081273732 6.382800888852091e-06 0.0001728372692686898)
(-1.000069148640471 1.883899376532206e-05 0.0001698651306700078)
(-1.000082108330772 5.024657857651902e-06 0.0001396889811188198)
(-1.000082809002386 1.484953690882979e-05 0.0001374496380917634)
(-1.000091928263708 4.005302068130455e-06 0.0001110238568714083)
(-1.000092387819683 1.185039460065289e-05 0.0001093517802767999)
(-1.000093274059216 1.920057506765718e-05 0.0001061040600556765)
(-1.000099028904204 9.62337911922455e-06 8.482904456355472e-05)
(-1.000099611637536 1.56245352355402e-05 8.243924496203461e-05)
(-1.000103547099157 8.007215191067932e-06 6.314923327436731e-05)
(-1.000103932858251 1.302383313058671e-05 6.144610385471184e-05)
(-1.000106509210643 6.885837878009785e-06 4.36177525794276e-05)
(-1.00010677076338 1.121636960677861e-05 4.248021822783986e-05)
(-1.000108293535309 6.179464321439403e-06 2.558314114466242e-05)
(-1.000108482431609 1.007649185834885e-05 2.493099545034228e-05)
(-1.000109131034921 5.838249543297564e-06 5.620415029628749e-06)
(-1.000109286448993 9.525488226567713e-06 5.478788812974068e-06)
(-0.999947873159953 1.09597872798567e-06 7.851464069718703e-06)
(-1.000115163855657 3.372922993213458e-06 9.079379086512332e-05)
(-1.000118232241981 2.776502815694427e-06 6.710832814497629e-05)
(-1.000120103838011 2.366674884103217e-06 4.610945819285267e-05)
(-1.000121163040432 2.110293242716091e-06 2.695137463824705e-05)
(-1.000121639155246 1.986958185677019e-06 5.910877108293722e-06)
(-1.000102768868175 5.343631885014323e-06 0.0001501632759713355)
(-1.000110613205184 1.243419410785063e-05 0.0001162622066613001)
(-1.000115335428108 9.984286260661833e-06 8.944820725534655e-05)
(-1.000115662139153 1.619531166678732e-05 8.683277632135823e-05)
(-1.000118319265271 8.226522980774141e-06 6.616062068534121e-05)
(-1.000118483786959 1.337055841838385e-05 6.431552466408491e-05)
(-1.000120139921913 7.017571940301029e-06 4.548201307372688e-05)
(-1.000120206560993 1.142418383960947e-05 4.425894642209197e-05)
(-1.000121170438706 6.260777876303077e-06 2.659375461564007e-05)
(-1.000121181884844 1.020418032464504e-05 2.589608841799918e-05)
(-1.000121633669471 5.89657192611845e-06 5.833438761432509e-06)
(-1.000121620305472 9.61659817418835e-06 5.682306477488166e-06)
(-1.000110304792953 4.2051834909967e-06 0.0001181183300924385)
(-0.9999464236064078 3.70026106720972e-07 7.950441544044281e-06)
(-0.9999473662059031 3.317427453084138e-06 2.37849878989581e-05)
(-0.9999458738314648 1.120166633809036e-06 2.408801895855948e-05)
(-0.9999464899971955 5.627857505147408e-06 4.041454513749071e-05)
(-1.000083945759118 1.288615734801638e-05 0.0003163428191407747)
(-1.00004793647465 1.178621501456287e-05 0.0002872360996487619)
(-1.000085863436436 3.782345708431193e-05 0.0003089860587196016)
(-1.000050259483679 3.46302398531645e-05 0.0002810044398668183)
(-1.000105365300899 9.624063993604132e-06 0.0002522890590574597)
(-1.000073883029355 8.971589019725116e-06 0.0002333908177535588)
(-1.000106449082149 2.830567277319811e-05 0.0002469960584807754)
(-1.000075316447664 2.641188615507613e-05 0.0002287757711472621)
(-1.000118418124342 7.266817566831856e-06 0.0002002427939979878)
(-1.000091256636207 6.886848602505478e-06 0.0001881455410726189)
(-1.000119003766162 2.141028243106934e-05 0.0001964120983615199)
(-1.000092133568444 2.030837106208135e-05 0.0001847282985739927)
(-1.000126125029304 5.556956340550008e-06 0.0001577705247336582)
(-1.000126414003211 1.63981728797433e-05 0.0001549921695216467)
(-1.000103296427293 1.578047023856968e-05 0.0001476374626320718)
(-1.000126955047801 2.643029783546176e-05 0.0001496240375876431)
(-1.000104303800137 2.547160563496466e-05 0.0001427506887006287)
(-1.00013058822242 1.27565048766944e-05 0.000120787157269073)
(-1.000130796839843 2.062022425628974e-05 0.0001168938623820404)
(-1.000111201894897 2.012294679263827e-05 0.0001126619224166839)
(-1.000132783429066 1.012758798396988e-05 9.215365733558741e-05)
(-1.000132799622567 1.641216390005161e-05 8.936140593353803e-05)
(-1.000133821596239 8.262685068115713e-06 6.771921383808802e-05)
(-1.00013372851275 1.341917125043416e-05 6.57692362415903e-05)
(-1.000134232857019 6.991224646723038e-06 4.633169845058941e-05)
(-1.000134079581849 1.137445529217545e-05 4.504882231202839e-05)
(-1.000134349054735 6.200235006440545e-06 2.700584751824651e-05)
(-1.000134164660103 1.01005823998763e-05 2.62777201225363e-05)
(-1.000134362959236 5.820986243448619e-06 5.914651158913758e-06)
(-1.000134165458955 9.489283908391878e-06 5.757313853430754e-06)
(-1.000130473816751 4.316888957070191e-06 0.0001227968612666823)
(-1.000132770170147 3.423097710243781e-06 9.359179492575184e-05)
(-1.000133865780495 2.78988509491113e-06 6.872174379699864e-05)
(-1.000134308682231 2.358609154822171e-06 4.699037012870897e-05)
(-1.000134441242757 2.090501927462787e-06 2.737935834354982e-05)
(-1.000134462040962 1.962010739858548e-06 5.995325146067081e-06)
(-1.000246570264327 1.351429995295542e-05 0.0003508290152235909)
(-1.00018474198394 1.399446619989052e-05 0.0003531170035274206)
(-1.000129653363172 1.370441129740129e-05 0.0003397963182121729)
(-1.000245821724262 4.063891945866192e-05 0.0003442485765512353)
(-1.00018454965152 4.137097570778583e-05 0.0003444066992274298)
(-1.000130759962334 4.025180019381218e-05 0.000331425350484081)
(-1.000234655486536 9.851724187890214e-06 0.0002657800066363975)
(-1.000186909027679 1.015868739624629e-05 0.0002712657280354628)
(-1.000143269187276 1.005585509903878e-05 0.0002658423891543074)
(-1.000233699097104 2.906480001494922e-05 0.0002597731666728937)
(-1.000186703439351 2.990109105410329e-05 0.0002650983937689164)
(-1.000143802675734 2.956503072855229e-05 0.0002599733918895761)
(-1.000231753738136 4.640245733126324e-05 0.0002472866441082899)
(-1.000184675716796 7.445405522196261e-06 0.0002086862586322135)
(-1.000149811729486 7.47288628721004e-06 0.000207688319881819)
(-1.000220783737099 2.099395560096521e-05 0.0001971885046921498)
(-1.000184336958066 2.191351122167375e-05 0.0002043327508266487)
(-1.00014998954927 2.200213802398108e-05 0.0002035228621944442)
(-1.000218938384619 3.35794484389411e-05 0.0001886867559346492)
(-1.000183667534373 3.509711354227493e-05 0.0001958947366734097)
(-1.000150314958277 3.528772745325531e-05 0.0001954931820746416)
(-1.000208639266311 1.541527288826046e-05 0.0001497883436780776)
(-1.000179974634678 1.631302743486085e-05 0.0001571517489290861)
(-1.000152216555642 1.661048873558002e-05 0.0001585428300748089)
(-1.000207007171592 2.474337014903273e-05 0.0001439279108944701)
(-1.000179178527439 2.622016874594862e-05 0.0001512332123553319)
(-1.000152153289978 2.673452690748193e-05 0.0001528092781872898)
(-1.00019799290568 1.154798512028901e-05 0.0001131720744428234)
(-1.000175037320501 1.237194919572012e-05 0.000119931498379583)
(-1.000152283607981 1.275721719988629e-05 0.0001222582523800874)
(-1.000196587807715 1.860149420274128e-05 0.0001091091334020688)
(-1.000174233114905 1.995181591086547e-05 0.0001157678944841783)
(-1.000152024338067 2.059706602335188e-05 0.0001181638841791937)
(-1.000189129829177 8.865637269787165e-06 8.423709782328615e-05)
(-1.000170322650788 9.603029939789125e-06 8.998191043217138e-05)
(-1.000151307613965 1.001373868065172e-05 9.249203847046947e-05)
(-1.000187925942569 1.432614056581186e-05 8.14285526530177e-05)
(-1.000169559927712 1.553238420138635e-05 8.706950999420685e-05)
(-1.000150957206863 1.621213266129922e-05 8.959259254086726e-05)
(-1.000182118588155 7.023475549184552e-06 6.073200904186709e-05)
(-1.000166268335931 7.681641627745558e-06 6.527284719181785e-05)
(-1.000149976624092 8.08925523556945e-06 6.75250821718511e-05)
(-1.000181076557212 1.138039984301023e-05 5.88267119846383e-05)
(-1.00016556069158 1.245639231829986e-05 6.327874786560262e-05)
(-1.000149589723332 1.312744377953605e-05 6.552045185070905e-05)
(-1.000176933494447 5.798420099623184e-06 4.097652406068088e-05)
(-1.000163106565778 6.393763249444207e-06 4.423754019945864e-05)
(-1.000148708909469 6.788471558558314e-06 4.597855158959416e-05)
(-1.000176011059223 9.416394621648722e-06 3.974970714572783e-05)
(-1.000162449361554 1.038966891118659e-05 4.294476323260226e-05)
(-1.00014831163313 1.103784640850326e-05 4.466952651624546e-05)
(-1.000173519685243 5.049629687725538e-06 2.366778400184179e-05)
(-1.000160954826834 5.602174204874774e-06 2.562606885772493e-05)
(-1.000147752060381 5.984195222087971e-06 2.671623015018183e-05)
(-1.000172675503244 8.213718926888489e-06 2.298131393038774e-05)
(-1.000160334509832 9.117192466289435e-06 2.489943116352611e-05)
(-1.000147354642259 9.743808727390738e-06 2.597693134795897e-05)
(-1.000171827042409 4.694375896554874e-06 5.160269283754595e-06)
(-1.00015986828965 5.225366533313994e-06 5.595304007952883e-06)
(-1.000147243210525 5.599989919301889e-06 5.842165033918702e-06)
(-1.000171021443393 7.642494599220409e-06 5.012981317991992e-06)
(-1.000159267203858 8.510854633014191e-06 5.43904881807768e-06)
(-1.000146847516653 9.125059687010175e-06 5.68280782572311e-06)
(-1.000221712677922 7.135103514517343e-06 0.0002015361383677046)
(-1.000180373743286 5.535622745830018e-06 0.0001602154414349364)
(-1.000152238435422 5.632925307735105e-06 0.0001615122553768687)
(-1.000209466640789 5.234506111639318e-06 0.0001528201520711066)
(-1.000198706696007 3.915348362449849e-06 0.0001152748248635974)
(-1.000175442346984 4.19201725366546e-06 0.0001220845472985045)
(-1.000152408893747 4.319855877455137e-06 0.0001243739281964194)
(-1.000189741615101 3.001452515245633e-06 8.568783235271263e-05)
(-1.000170708029123 3.249282030446046e-06 9.148486849785189e-05)
(-1.000151481764907 3.386415050599087e-06 9.398691535555175e-05)
(-1.000182647962251 2.374747877317197e-06 6.171412676896502e-05)
(-1.000166626471267 2.596030315160762e-06 6.629988512927213e-05)
(-1.000150170766773 2.732531049978689e-06 6.855665158978331e-05)
(-1.000177401878857 1.958515396014826e-06 4.160784480151514e-05)
(-1.000163439413013 2.158683565575794e-06 4.490233084102881e-05)
(-1.000148909094527 2.291049807304062e-06 4.665118645997114e-05)
(-1.000173948141543 1.704339633867821e-06 2.402063830086241e-05)
(-1.000161269075366 1.890102504594676e-06 2.599933565836585e-05)
(-1.000147952703061 2.018298353061122e-06 2.709574337387969e-05)
(-1.000172235808799 1.58381732617842e-06 5.235933697278393e-06)
(-1.00016017281788 1.762320772049018e-06 5.675528115402048e-06)
(-1.000147443136363 1.888066408175102e-06 5.923929774368205e-06)
(-0.999941009211664 4.637680513124046e-06 0.000100794428760856)
(-0.999942758074721 1.700399625616575e-05 0.0001236837419171647)
(-0.9999422270107219 3.637553428385121e-06 7.877331284205246e-05)
(-0.9999436342436022 2.732682519243354e-06 5.899865785950997e-05)
(-0.9999430746458474 1.371153108045483e-05 9.933754021813082e-05)
(-0.999944084513167 1.07612009330868e-05 7.768817051309295e-05)
(-0.9999449178479702 1.900757955304622e-06 4.094034228471493e-05)
(-0.9999453276316751 8.088168763460686e-06 5.821750244908452e-05)
(-1.000443223316142 9.364867411115869e-06 0.0002335269968125073)
(-1.000381001860962 1.179507104636785e-05 0.0002961257391134947)
(-1.000313112971912 1.324820780259104e-05 0.0003348947756639182)
(-1.000438140104884 2.643138983836009e-05 0.0002254658636678995)
(-1.000377116951601 3.422740291465646e-05 0.0002866491084560514)
(-1.000311391745711 3.892075376108132e-05 0.0003251358097334756)
(-1.000284270849447 9.203776519379647e-06 0.0002478653104887123)
(-1.0003707962663 1.775351446144439e-05 0.0001613596688152074)
(-1.000329494460774 2.325614136104783e-05 0.0002090064858434443)
(-1.000282386240635 2.699934265390695e-05 0.0002415281506810872)
(-1.000321386475469 1.226915646122475e-05 0.0001178189818332696)
(-1.000291956293209 1.622755398739568e-05 0.000154256675279907)
(-1.000257463769738 1.913921791855189e-05 0.0001807419445976523)
(-1.000284326425969 8.676033868602741e-06 8.676155473002059e-05)
(-1.000262653218277 1.159498471869041e-05 0.0001145767014106651)
(-1.0002367810006 1.385355823766933e-05 0.0001356969317656658)