/*--------------------------------*- C++ -*----------------------------------*\
  =========                 |
  \\      /  F ield         | OpenFOAM: The Open Source CFD Toolbox
   \\    /   O peration     | Website:  https://openfoam.org
    \\  /    A nd           | Version:  7
     \\/     M anipulation  |
\*---------------------------------------------------------------------------*/
FoamFile
{
    version     2.0;
    format      ascii;
    class       volScalarField;
    location    "0";
    object      mag(grad(Phi));
}
// * * * * * * * * * * * * * * * * * * * * * * * * * * * * * * * * * * * * * //

dimensions      [0 1 -1 0 0 0 0];

internalField   nonuniform List<scalar> 
12693
(
0.9999997692367731
0.99998545433458
0.9999758133806943
0.9999696116485527
0.9999658501228
0.9999637504355738
0.9999627241508033
0.9999623386675095
0.9999622860163924
0.9999623572940967
0.9999624304057534
1.000002224820868
0.9999877985769882
0.9999779973282711
0.9999716179929559
0.9999676817689218
0.9999654225541674
0.9999642588864829
0.9999637617922242
0.9999636249481755
0.9999636400341553
0.9999636827233996
1.000027909685673
1.000012598430245
1.000001297005454
0.9999931460829401
0.9999874013050615
0.9999834483837823
0.9999807991386687
0.9999790786469714
0.9999780097627542
0.9999773985592963
0.9999771007736948
1.00002960651974
1.000014285728235
1.000002924463622
0.9999946870368949
0.9999888458650111
0.999984798065941
0.9999820629022144
0.9999802701078796
0.9999791453201143
0.9999784961867073
0.9999781776629325
1.00004884247949
1.000033537301164
1.000021564542042
1.000012360489532
1.000005400222561
1.000000224860632
0.999996451841781
0.9999937752660124
0.9999919612856064
0.9999908418127597
0.9999902652220765
1.000050016773957
1.000034753929117
1.00002277916463
1.000013545289539
1.000006540155358
1.000001314319545
0.9999974919341431
0.9999947717117713
0.999992922860508
0.9999917792235089
0.9999911892569481
1.000064286861799
1.00004952883895
1.000037491500328
1.000027830976748
1.000020198083505
1.00001426763433
1.000009754719258
1.000006422189923
1.000004082793962
1.000002598497679
1.000001819697218
1.000065102533027
1.000050410456739
1.000038402636872
1.000028746279727
1.000021101425214
1.00001515018764
1.000010613204691
1.000007257393835
1.000004898371158
1.000003400025107
1.000002613303667
1.000075579985927
1.000061607334794
1.000049840796057
1.000040093578287
1.000032150347927
1.0000257938888
1.000020822636489
1.000017061306432
1.000014366725702
1.00001263061504
1.000011710566862
1.000076150423499
1.000062252049644
1.00005053088085
1.000040807327473
1.000032872484609
1.000026514545202
1.000021536291984
1.000017765795597
1.000015062364395
1.000013319451298
1.000012395423065
1.000077256316045
1.000083733934463
1.00007059211009
1.000059245397083
1.000049615679067
1.000041585606086
1.000035021004588
1.000029787337936
1.000025761135385
1.000022837513923
1.000020934864392
1.000019920081187
1.000084137761859
1.00007107087283
1.000059776457316
1.000050180962695
1.000042171408856
1.000035617521425
1.000030388062277
1.000026362224527
1.000023437174321
1.000021532780646
1.000020516790129
1.000084922325771
1.000072004210108
1.000060814278459
1.000089496025495
1.000077111307177
1.000066209079886
1.000056784040532
1.000048787845293
1.000042147298017
1.000036778900451
1.000032599915254
1.000029536405846
1.000027528819969
1.000026453343573
1.000089788250198
1.000077475844327
1.000066628111568
1.000057242577218
1.00004927382631
1.000042651438907
1.000037294385483
1.000033122008145
1.00003006202711
1.000028056119493
1.000026981326257
1.000090357101347
1.000078187837331
1.000067448371106
1.000058141671227
1.000050227993962
1.000093401899814
1.000081629160791
1.000071115513977
1.000061902357182
1.000053987534234
1.000047340081545
1.000041912881704
1.000037652955963
1.000034509451691
1.000032439550208
1.000031327335831
1.000093621769812
1.00008191792491
1.000071458789047
1.000062287493968
1.000054403857831
1.00004777891444
1.000042367413261
1.000038118011873
1.000034981203659
1.000032915193678
1.000031804893619
1.000094050523435
1.000082482855996
1.000072131726052
1.000063043598145
1.000055222112123
1.00004864218518
1.00004326220792
1.000039034037123
1.000095817768956
1.000084470806937
1.000074239735132
1.000065193466314
1.000057357984974
1.000050728730922
1.000045281817538
1.000040983607362
1.000037798472958
1.000035694762874
1.00003456221613
1.000095994370122
1.000084713454199
1.000074536231629
1.000065532712817
1.000057730280886
1.000051125887514
1.000045697125973
1.000041411701719
1.000038235121705
1.000036136614572
1.000035006715911
1.000096339235719
1.000085188778093
1.000075118108283
1.000066199341446
1.000058462566605
1.000051907674113
1.000046515142928
1.000042255302905
1.000039095881635
1.000037007832856
1.000096971220442
1.000085841876447
1.000075758617298
1.000066803060087
1.000059014468383
1.000052400944991
1.000046949890663
1.000042637166879
1.000039434689741
1.00003731637942
1.000036174908308
1.00009712759486
1.000086062724387
1.000076032801189
1.000067120248662
1.000059365459309
1.000052777815664
1.000047346009947
1.000043047101169
1.000039854033321
1.000037741533379
1.000036603051548
1.000097433214338
1.000086495661463
1.000076571217114
1.000067743846901
1.000060056126293
1.000053519924943
1.000048126453045
1.000043855109403
1.000040680849648
1.000038579981483
1.000037447490183
1.000098730940582
1.000103349711398
1.000106375092532
1.000108196361579
1.000109050846932
1.000020281498697
1.000022751686399
1.000048227843919
1.000049851742393
1.000068096229445
1.000069163243996
1.000082118099099
1.00008281855805
1.00009193443431
1.000092393868246
1.000093279872041
1.000099032548131
1.000099615157363
1.000103549124918
1.000103934830668
1.000106510185501
1.000106771728465
1.000108293881613
1.000108482793115
1.000109131067755
1.000109286509362
0.999947873191378
1.000115167982626
1.000118234497333
1.000120104903724
1.000121163405803
1.000121639174687
1.000102780155797
1.000110620040183
1.000115339477975
1.000115666039812
1.000118321487459
1.000118485944332
1.000120140980715
1.000120207605551
1.000121170811873
1.000121182272163
1.000121633703866
1.000121620367848
1.000110311776994
0.9999464236380828
0.9999473664942837
0.9999458741222242
0.9999464908297442
1.000083995874326
1.000047977794415
1.000085911883774
1.000050299563038
1.000105397168736
1.000073910303221
1.000106479982992
1.000075342963638
1.000118438196957
1.000091274357676
1.000119023281896
1.00009215083534
1.000126137488941
1.000126426147412
1.000103307449076
1.000126966589292
1.000104314312321
1.00013059559759
1.000130803883606
1.00011120844299
1.000132787725928
1.000132803749429
1.000133823923009
1.000133730765282
1.000134233954624
1.000134080661092
1.000134349438563
1.00013416505632
1.000134362993665
1.000134165520543
1.000130481364618
1.000132774555136
1.000133868145409
1.000134309788911
1.000134441619706
1.000134462060856
1.00024663188095
1.000184804416136
1.000129711180349
1.000245881788797
1.000184609804183
1.000130815686531
1.000234690846272
1.00018694586494
1.000143304568855
1.000233733252552
1.000186739018324
1.00014383690094
1.000231785382737
1.000184697515464
1.000149833321393
1.000220803394785
1.000184358070211
1.000150010498952
1.000218956745734
1.000183687334014
1.000150334686715
1.000208650601036
1.000179987113825
1.000152229259577
1.000207017833124
1.000179190304819
1.000152165320852
1.000197999375037
1.000175044587544
1.000152291161745
1.00019659393192
1.000174240013843
1.000152031530444
1.000189133415743
1.000170326744572
1.000151311940836
1.00018792935985
1.000169563838226
1.00015096135107
1.000182120456668
1.000166270495348
1.000149978936281
1.000181078351935
1.000165562770917
1.000149591955628
1.000176934350644
1.000163107564535
1.000148709989364
1.000176011893431
1.000162450337494
1.000148312691573
1.000173519978023
1.000160955170819
1.00014775243511
1.000172675800996
1.000160334861328
1.000147355027073
1.000171827066737
1.000159868318951
1.000147243243266
1.000171021485155
1.000159267254858
1.000146847574425
1.000221733007277
1.000180386590784
1.000152251492404
1.00020947832904
1.000198713346493
1.00017544980678
1.000152416636335
1.00018974529011
1.000170712218427
1.000151486186741
1.000182649869039
1.000166628672107
1.00015017312016
1.000177402746227
1.000163440423288
1.000148910185156
1.000173948431441
1.00016126941508
1.000147953072132
1.000172235823758
1.000160172835536
1.000147443155689
0.9999410143024767
0.999942765868569
0.9999422301201348
0.9999436359878551
0.9999430796741101
0.9999440875889666
0.9999449186878787
0.9999453293591176
1.000443250615321
1.000381045759024
1.000313169119343
1.000438165860336
1.000377158605505
1.00031144534308
1.000284301601666
1.000370809437481
1.00032951656577
1.000282415764703
1.000321393489138
1.000291968318925
1.000257480282467
1.000284330226309
1.000262659847668
1.000236790301187
1.00025641277264
1.000239977308545
1.000220064670317
1.000235526879025
1.000222668273747
1.000206890866108
1.000220220094069
1.000209795246809
1.000196864639914
1.000209493405217
1.000200677593238
1.00018964543609
1.000202679870879
1.000194844095186
1.000184975206399
1.000199370375326
1.000191998700016
1.000182682634534
1.000374892968335
1.000332575358166
1.000259079248436
1.000324355962479
1.000294286046204
1.000286492273613
1.000264413482075
1.000238080300006
1.000258027686945
1.000241323439483
1.000221100178339
1.000236767985118
1.000223725242824
1.000207731929333
1.000221207321876
1.000210650560475
1.000197563421875
1.000210313106998
1.000201397328941
1.000190245395485
1.000203397702375
1.000195480338608
1.000185512996286
1.000200040019137
1.000192595156929
1.000183190435753
1.00042406895584
1.000368550146246
1.0003623455061
1.000323326679011
1.000278489378557
1.000315579136331
1.000287414629073
1.000254311079839
1.000280119266367
1.000259235295371
1.000234259123366
1.000253263921431
1.000237347397682
1.000218035302339
1.000233101107992
1.000220599536736
1.00020524114602
1.000218286176755
1.0002081180599
1.000195492290435
1.000207884688306
1.000199264026217
1.000188465803447
1.000201269204342
1.000193593068243
1.000183916887188
1.000198053478847
1.000190825186779
1.000181682859502
0.9998782906882815
0.9998857412303686
0.9998906729606505
0.9998933305202792
0.9998714283169585
0.9998810149379386
0.9998881705009064
0.9998929150641092
0.9998954743617031
0.9998492161038555
0.9998519730416746
0.9998590716018885
0.9998681338360897
0.9998776427557837
0.999886660304831
0.9998946251008336
0.9999012139524119
0.9999062496193682
0.9999096408367509
0.9999114869784601
0.9998565208377376
0.9998581303422326
0.9998642269414167
0.999872449712358
0.9998812749357365
0.9998897484161772
0.9998972906877187
0.9999035619764913
0.9999083713872986
0.9999116174041269
0.9999133867848523
0.9999129840666166
0.9999066364589471
0.999905487863709
0.9999074412913157
0.9999110288708647
0.9999152496826166
0.9999194366395932
0.999923155020339
0.9999261287956824
0.9999281892578062
0.99992932943843
0.999918099332783
0.9999111306524648
0.999909388087372
0.9999108098639479
0.9999139420555621
0.9999177860117369
0.9999216712416533
0.9999251574682757
0.9999279629288612
0.9999299140616106
0.9999309960166378
0.9999622908879684
0.9999506510875953
0.9999441758971874
0.9999411954981542
0.9999404494301217
0.9999658419713155
0.9999539042189687
0.9999471016861508
0.9999438021494659
0.9998544298681356
0.9998629722775748
0.999927491304622
0.9999812946253513
0.9999850503931046
0.9999331862326502
1.000013372656448
1.000049610295
1.000009614693567
1.000052963732308
0.9999091079357223
0.9998723543347993
0.9999205194592645
0.9998821366393716
0.9999949912833125
0.9999534244653101
1.000001090139225
0.9999595272675054
1.00024964624386
1.000219129452288
1.000175296395999
1.000104299658871
1.000254279183109
1.000173184132212
1.000106267054578
1.000334464398452
1.00007872735146
0.9999716873844678
1.000204089716619
1.000089737395461
0.9999867376852268
1.000172563934392
1.000233949819307
1.000058284289733
1.000213815887243
1.000131393596079
1.000062777464105
1.00055675489045
1.000443306561042
1.000343277989752
1.000630898832814
1.000438138195092
1.000340580380516
1.00100943953173
1.0007405304678
1.000318269083807
1.00099135689267
1.000736766638274
1.000443533781729
1.000663715831087
1.000531030690651
1.000318822488099
1.000660113149998
1.000516653227082
1.000245672631506
1.00094707214118
1.000714491474226
1.000334130790621
1.00063092951266
1.000513393818321
1.000250589668847
1.000465918051615
1.00106895349273
1.00070329621743
1.000998939000331
1.00066082055378
1.001048501494738
1.000691726411572
0.9994265466247124
0.9995273136481524
0.9996070046879207
0.9996700860872397
0.9997198146807953
0.9997586789975629
0.9997885875349226
0.9998109836179727
0.9998269294043732
0.9998371691386698
0.9998425870891193
0.9994518436340204
0.9995455709885561
0.9996203092645632
0.9996799818767602
0.9997273493506298
0.9997645604974791
0.9997933073080987
0.9998148949873906
0.9998302969755514
0.9998402013944473
0.9998454463642434
0.9995542154641257
0.9996202563198873
0.9996760603168707
0.9997223176066384
0.9997600674506304
0.999790368020538
0.9998141724504632
0.9998322803054739
0.9998453231581722
0.9998537656093754
0.9998582541925153
0.999573679613119
0.9996347442556859
0.9996869424730617
0.9997306286702958
0.9997665373690701
0.9997955136591377
0.9998183677081628
0.9998358034303779
0.9998483886469879
0.9998565465223914
0.9998608875385675
0.999670122744809
0.9997078818802547
0.9997431112868648
0.9997743180812176
0.9998010233535363
0.999823227083901
0.9998411391896382
0.9998550380504183
0.9998651950014
0.9998718345298369
0.9998753856188503
0.9996844521606622
0.9997189931017758
0.9997517626295476
0.9997811248955751
0.9998064552168098
0.9998276386354622
0.9998448005883264
0.9998581589855244
0.9998679428270534
0.9998743481013863
0.9998777770006145
0.9997686869672199
0.9997857051519493
0.9998047340208983
0.9998234799135353
0.9998406876065168
0.9998557175513795
0.9998682832268004
0.9997789828416054
0.9997940398027225
0.9998114661795671
0.9998289431050739
0.9998451631640604
0.9998594349734741
0.9995043221720732
0.9996333596413793
0.999651681956305
0.9997576282058351
0.9997701724741536
0.9992912543336449
0.9993241268709575
0.9995325055681458
0.9987656388487897
0.9991443680637173
0.998822428582963
0.9991862944338656
0.9990690875871842
0.9992644376091439
0.9991817940036547
0.9993918036924687
0.9992630426628445
0.9993875556868116
0.9993427259566596
0.9994478085869716
0.999535843501014
0.9996102905756938
0.999566127712038
0.999630642604448
0.9996155830789486
0.9997834936660246
0.9997587961514086
0.9997999290264723
0.9997734957892906
0.998812092296904
0.9987155808632591
0.9989214661435364
0.9995796730753581
0.9993468411263843
0.9993161652515463
0.9999865488062701
0.9997437006567952
0.9996279532975091
1.000182460505106
0.9982812184636609
0.9983545965425852
0.9987057347759085
0.9987089914670045
0.9986361083938327
0.9987690733425396
0.9993441295128329
0.9991377053900934
0.9991593416029007
0.9995332261545159
0.9993047101387823
0.9992214919555934
0.9998875946863715
0.9996380435763493
0.9995467054817461
0.9999669261089261
0.9997233680551854
0.999643543557577
1.000157944764913
0.999976551194891
0.9997545378108079
0.9996292160053643
1.000037697324427
0.999770533317235
1.000496160203967
0.9983295806001781
1.00298212741274
1.000439347822849
0.998781848374777
1.002426415191793
1.000927034837748
0.99944160021068
1.002376474929103
1.000975054843373
0.9996310700605094
1.001786383016499
1.001001423028404
0.9999787362242812
1.001767567401161
1.000980318100767
1.000053428838247
1.001081471965935
1.000775229908959
1.000279258679395
1.001061150664948
1.000771268107441
1.000308673178723
1.002511834642778
1.000590613004416
0.9988897646607333
1.002201906602228
1.000983543567877
0.9996771853311412
1.001652478456069
1.000973385177895
1.00007178464293
1.001011401795749
1.000746785899207
1.000282748096095
1.002835196310447
1.001982354845797
1.001149611624418
1.003428163696034
1.002524685193026
1.001818371315647
1.00107072834365
1.00308284568809
1.001959129175785
1.001126622057977
1.000998488059584
1.000806917707475
1.000813769809874
1.000816579062114
1.000826325588468
1.00068031151186
1.000672487889574
1.000746315969079
1.000543253622176
1.000542990753543
1.000573000890511
1.000550349234482
1.00054806858742
1.000552399479921
1.00080256421319
1.000960396038817
1.00078463522348
1.000815390229118
1.000787344830918
1.000552655361022
1.000666273975603
1.000541511585174
1.00072117374096
1.00053845884624
1.000596307527337
1.000520089180099
1.000532883316267
1.00064113838848
1.000774968055072
1.000776413129659
1.000593626177817
1.001056615545611
1.000866558000553
1.000871204886262
1.000814984307216
1.001013654030211
1.000854645003001
1.000825669948665
0.9987825310449896
0.9990815837595205
0.9990220486170339
0.9989013433819351
0.9988904677185813
0.9991141216038334
0.999143186402593
0.9988826980341756
0.9990478862027139
0.9990885070740255
0.9990059874653977
0.9989966044135647
0.9991457827717612
0.9992372584645165
0.999428408625714
0.9988251029780449
0.9992457657482026
0.9988193723920979
0.9992135251094223
0.9991757074939787
0.9992040276403348
0.9988062319586452
0.9991775272807031
0.9999096187612238
0.9993851460722815
0.9997093826999828
0.9992886582225821
0.9996626164226949
0.9995690554100191
0.9995079822497461
0.9992835545148406
0.9994790335655721
1.000146169349972
0.9997908001423446
0.9999677902015495
0.9996705772403301
0.9998657663243657
0.9998243507821685
0.9991382598178934
0.9991930459980874
0.9983326375544699
0.9983081372737008
0.9982786727835519
0.9989856258558605
0.999033899453441
0.998317058964445
0.9984420401935213
0.99842121078346
0.9989666428396777
0.998971133793331
0.9990122381543396
0.9990087315473386
0.9987248718422654
0.9990550204730746
0.9990936246221482
0.9985503641148171
0.998524354077216
0.9989868595234871
0.9990223404647326
0.999371382835054
0.9992280185374208
0.9984470615880651
0.9986372998277275
0.9991937050214624
0.9984747749635664
0.9990649074466698
0.9986794348121797
0.9991638762813475
0.9991341444462613
0.9984388831727075
0.9985610816550343
0.9990415741587757
0.9990328128286404
0.9988359438615239
0.9991071477069522
0.9991709174495519
0.9987489258994902
0.9991387127653886
0.9986091416582097
0.99904465909267
0.999388465127559
0.9997860563359457
0.9998091949409083
0.9991668036683086
0.9992072126140954
0.9995821617317565
0.9996055607736204
0.9991112115337267
0.9991762270280599
0.9991437401972634
0.9995371256663697
0.9994543873595929
0.9995599521652769
0.9994738288163949
0.9992038033608426
0.9993202270364672
0.9993049697169991
0.9991171000322325
0.999148213488032
0.9994407356114452
0.9994577649433949
0.9998851092407003
0.9994167987427202
0.9998240154583826
0.9993413478309313
0.9996840123189652
0.9992332004506335
0.9996207428892945
0.9992527426447624
0.9996377244854384
0.9995488077421325
0.9992010468346347
0.9991645418041387
0.9995748911362786
0.9994873461458434
0.9992771933776856
0.9993707006803206
0.9994174979591561
0.9992500198442684
0.9994438788538134
0.9991674658105446
0.9994700573163975
0.9999061516102843
1.000097646082933
1.00010691888903
0.999684995804915
0.9997044307280925
0.9999124086249143
0.9999250818459797
0.9995460156334735
0.9996569831221983
0.9995616416710906
0.9998658258829312
0.9996582312724611
0.9998744772091074
0.9996550599041144
1.000136271390546
0.9999180410066908
1.000112944020011
0.9997700668005205
0.9999565206755721
0.9997171630318968
0.9999339294352192
0.9996443692709112
0.9998385898222062
0.9997518473786713
0.9996695937458588
0.9995738248995416
0.9998812069707027
0.9996963819021593
1.000150880360995
1.000108544506672
1.000106200540154
1.00014434334694
1.000151004669459
0.9999655087854911
0.9999822565824703
1.000213444712046
1.00015637701395
1.000114955319936
1.000171907941077
1.000155489322683
1.000028675555463
1.000000407381276
1.000150089997863
0.9993316428324558
0.9992923995973266
1.000683019117609
0.9999091642385487
1.000703653809306
0.9999586843760441
0.9992312594755892
0.9992872069941652
0.9983842957164625
0.9987803383952747
0.9987191295378897
0.9996864375023801
0.9997397934759791
1.002160502899354
1.002623965696521
1.002909351516732
1.0015362773992
1.001259223264986
1.001479681260904
1.001645336145195
0.9996396208501062
1.000923807155403
1.000112415230169
1.000300716221796
0.9995452616013885
1.00074769858961
0.9999897540915951
0.9994680923253221
0.9991046309983969
0.9999076815319098
0.9993228320027514
0.9985057230404031
0.9989147718593383
0.9997734335781865
1.001927327724734
1.002448154846415
1.001959655149913
1.001638293689067
1.001634686919386
1.001236250496224
1.001227761758429
1.000095968185631
1.000938526601099
1.000132234184088
1.001010959146076
1.000423974217922
1.001009092636459
1.000436991812242
0.9994862509359237
0.9998810240758621
0.999903287606657
0.9998874745948084
0.9999277027799969
1.000262346887465
1.000278696583405
1.00225380716933
1.001906213005846
1.001815396764664
1.001268818862728
1.001194830518942
1.001271162469367
1.001221965289063
1.00024489059419
1.00099836431457
1.000476903179761
1.000946795160964
1.000154995918534
1.001007569480473
1.000445125332595
0.9999758919711165
1.000054563821754
1.000330186574551
0.9995147157894769
0.9999175100713101
0.9999530880802608
1.000289008991004
1.001424950788755
1.00181518707821
1.001444956598218
1.001197356359481
1.001187826000817
1.00105290434465
1.001043313411193
1.000480529798234
1.000997398721112
1.000489311554427
1.000922959217307
1.000559833963554
1.000916555386186
1.000561523542021
0.9999962723107707
1.000173992712217
1.000182143449282
1.000333734964051
1.000345526211118
1.000451569210935
1.000455367192331
1.00168660365057
1.001411863613416
1.001355359240637
1.001152225609996
1.001008827627574
1.001181416423951
1.001036957677921
1.000515839355063
1.000892865582345
1.000565291097024
1.000994546172199
1.000494769069973
1.000912260532536
1.000562451307224
1.000208691059434
1.000382477749549
1.000466389836505
1.000007474751775
1.000187380671709
1.000352948909734
1.000457662037394
1.001069184477089
1.000850677729555
1.000858097918226
1.001323722714502
1.001341405359163
1.001002382674585
1.000993253889271
1.000781159317309
1.000554343108646
1.000553801526602
1.000888663099616
1.00056639251752
1.000882203734229
1.000566986199451
1.000269625838563
1.00048711694586
1.000481275387118
1.00021493363188
1.000220791039151
1.000468784930713
1.000471291000156
1.000845821494623
1.001026312162449
1.00082479633908
1.001312149109567
1.001262109391946
1.000960561062384
1.000987212719774
1.000553039711504
1.000754226891309
1.000547877004766
1.00085854929839
1.000566815751722
1.000877883502526
1.000567144687862
1.00027685933209
1.000485716171124
1.000483165893966
1.000240840447208
1.000477479797909
1.000224669023839
1.00047265369873
1.00280159043188
1.001603026323862
1.001262308070675
0.9999479783444035
1.000941590208484
1.000158923363098
0.999525490996177
0.9993267898388928
0.9999593049358571
1.001777144232248
1.001264889521824
1.001182352066882
1.000278974329331
1.000993221777321
1.000488755042945
0.999999176797171
1.000093656007482
1.000346011421529
1.00133144276674
1.00113915131037
1.000996586570438
1.000523562333331
1.000884247693454
1.000565974032092
1.000217603341826
1.000393769403047
1.000469576272281
1.000815236015762
1.001240889352445
1.000948991303293
1.000545177202962
1.000850034107452
1.000566292194294
1.000484092760314
1.000248148995239
1.00047915748303
1.002159942576004
1.002866136012661
1.002200960535786
1.001545240742781
1.002018030315264
1.001568760885209
1.0011357186756
1.001426811665596
1.001447338578513
1.003465029357176
1.001972002314039
1.001436054590228
1.001331232118573
1.003009876011569
1.002133262094865
1.002019473507187
1.001859877018114
1.001529885429175
1.001463864537447
1.001087363455177
1.001413399208339
1.001355623975657
0.9990107022448698
0.9990540927955587
0.9991457670957258
0.9978993887792932
0.9980949410037424
1.003017895402474
1.003073769009855
0.9997817648281559
0.9979172142157258
1.003852938293059
1.002790226958861
1.003831153327053
0.9986472607219067
0.9986663966074183
0.9988007978602119
0.9987890777068263
0.9987102375110681
0.9987771599297364
0.9988784464480572
0.9988392777837692
0.9988649794552976
0.9988870146472614
0.9985433542585459
0.9986075642950123
0.9985149271689983
0.9986603467149822
0.9988139046674771
0.998664848165055
0.9979620535922821
0.9979953124188992
0.9979602304331234
0.9980511059629182
0.9982285946951887
0.9982046790053657
0.9985747745315098
0.9985962062469576
0.9983757707652909
0.9983463554317805
0.9984188459525254
0.9981012926649899
0.9983859077653784
0.998193364766385
0.9984227275193351
0.9985006190098316
0.9981932655108077
0.9983651471019287
0.99864520717938
0.9987192963431931
0.9986002213691656
0.9984422586299422
1.002174238445569
1.003008184006728
1.002620207469479
1.001000358461994
1.000729840474451
1.001134053197086
1.001146549724842
1.00320822803921
1.000415099317898
1.000352873506306
0.9997104609575436
0.9988546836068914
0.9988012027191497
0.9979847899151491
0.9983107963674798
0.9982312971759387
1.003021780774993
1.003005205687296
1.001379350424821
1.001266636075516
1.000134823934992
0.9992721520378248
0.9999310294356435
0.9991444428540484
0.9984736331259421
0.9987301426010563
0.9981345130115215
0.9984849685183682
1.002913927074036
1.001528798967517
1.000357920193716
0.9996879336656683
0.9986056164606251
0.9990157325887756
1.003326466133494
1.00395055750492
1.003126957932361
1.003790539411788
1.003712690153966
1.003276007153551
1.003142386598516
1.003669517895598
1.003968704318253
1.003883583129171
1.00016707706925
1.000271620567206
1.000176279258819
1.000222786384111
1.000149853961293
1.000150692283407
1.000261865452
1.00025854285172
1.000180398312159
1.000176624956294
1.000160724179516
1.00022645745547
1.000154728789623
1.000266970701063
1.000263735766683
1.000170909090774
1.000173534411849
1.000886505563618
1.001007588388169
1.000946338129218
1.000943559465246
1.000941867757129
1.000944722866123
1.000887986995135
1.000651856707291
1.000743511712324
1.000673764115825
1.000707153606423
1.000710243382702
1.000647132681231
1.000676526952598
1.000302744858629
1.00048709440026
1.000475348263477
1.000306230478865
1.000345322558866
1.000429855372595
1.000430359362068
1.000867505557151
1.00093068585005
1.000982576539595
1.000927415731251
1.00087410303072
1.000919556521741
1.000923142625863
1.000633720277456
1.000670308287993
1.000732071690998
1.000704073022127
1.000642884703463
1.000700374049718
1.000665470419634
1.000349330322334
1.000481971595842
1.000491340079708
1.000359281231122
1.000401280840627
1.000348571166479
1.000428113660732
1.000735568290337
1.000666755833701
1.000740175396344
1.000595155688437
1.000596124424631
1.00066400419315
1.000660359180181
1.00053393772348
1.000459877555876
1.000460774194342
1.000576998543113
1.000501129824237
1.000573623543704
1.000500519033155
1.000644474388608
1.000727445440944
1.00071368245717
1.000585590375223
1.000641438121322
1.000591782836822
1.000652624310446
1.000445823866196
1.000568389727839
1.000490918820502
1.000523909127624
1.00045659162879
1.000539933137005
1.000498762400176
1.000828512475452
1.000892283978769
1.00093239028351
1.000887581668548
1.000840424569587
1.000874302602651
1.000878994976325
1.000537004335948
1.000719086026484
1.000512674574833
1.000416860531012
1.000352198334076
1.000433274301332
1.000695161696782
1.000570028452472
1.000598263389053
1.001041956739665
1.001066890020067
1.001123507336766
1.000996236163349
1.000994429483382
1.001121236944891
1.001043948468383
1.000906890449333
1.00070773314965
1.000825442379234
1.000960149513066
1.00098296800837
1.001046680472218
1.000933232520408
1.00091913932498
1.000975185000492
1.00102936256688
1.000754329675679
1.001013538215807
1.001038550034506
1.00110097000075
1.000977743227025
1.000968651182677
1.001023501461225
1.001090020897518
1.000674935316023
1.000788694886798
1.000772711772122
0.9987711936060101
0.9988294817718095
0.9988246563397439
0.998926912389801
0.9988787389937104
0.998883176785503
0.9989238048954754
0.9991518594237289
0.9990836269063987
0.9991004513094298
0.9992312533938923
0.9992395081705484
0.9991937631005933
0.999206021274193
0.9988513219096573
0.9989026824297778
0.9988754388180703
0.9990244380767569
0.9989285218342852
0.998965283520264
0.9989594501119788
0.999206125807898
0.9992376922904677
0.9991317836371771
0.9992669916353034
0.9992865265988407
0.9992329516497475
0.9992601385735382
0.9989657640914154
0.9991118652661879
0.999392755127067
0.9991879231790046
0.9993425966091111
0.9993105728386221
0.9991964034756325
0.9993701026227745
0.999432619389963
0.9994170380283814
0.9992883549800369
0.9994172096833709
0.999422750951368
0.9993159332736655
0.9995549048081833
0.9994567256972937
0.9993128757357232
0.9993466409202606
0.9994426194933737
0.9994666297528659
0.9994979958581124
0.9993905458434414
0.9995034191259794
0.9989194071954094
0.9988619267589827
0.9987599394222535
0.9990684651048439
0.9990474425919563
0.9989832404563822
0.9991361025397029
0.9987995530369412
0.9988049940952146
0.9987270494764996
0.9989642954705504
0.9988986475544862
0.9989708420770337
0.9988967489019479
0.9989672592920935
0.9989317849743399
0.9988805226379979
0.99903708086973
0.9990222697115986
0.9990588931910827
0.998991703749884
0.9996680149808249
0.9996284308644418
0.9997085496413223
0.9994997561226155
0.9995483086875593
0.9996280620874459
0.9997481829241425
0.9994691655918554
0.9993189747191581
0.999465385399807
0.9993916591319894
0.9993618682022324
0.9995033069115282
0.9994326639884886
0.9993065933128519
0.9992689110702083
0.9992873606278345
0.9993381908637567
0.9992647482123496
0.9993178016959321
0.9993052497166613
0.9999963939365333
1.000007318615176
1.000050517671063
0.9999116814079768
0.9999333792160785
0.9999788586435917
1.000067176823989
0.999783569578698
0.9997046528350811
0.9998148228228485
0.99976482735254
0.9997238284542761
0.9998297124207762
0.9997746442459262
0.9997359325525776
0.9996624929457082
0.9997694075126052
1.000083473118226
1.000179442020583
1.000042489456471
1.000052213993529
0.999983092004991