/*--------------------------------*- C++ -*----------------------------------*\
  =========                 |
  \\      /  F ield         | OpenFOAM: The Open Source CFD Toolbox
   \\    /   O peration     | Website:  https://openfoam.org
    \\  /    A nd           | Version:  7
     \\/     M anipulation  |
\*---------------------------------------------------------------------------*/
FoamFile
{
    version     2.0;
    format      ascii;
    class       volScalarField;
    location    "0";
    object      p;
}
// * * * * * * * * * * * * * * * * * * * * * * * * * * * * * * * * * * * * * //

dimensions      [0 2 -2 0 0 0 0];

internalField   nonuniform List<scalar> 
12693
(
6.987200964278658e-05
6.87100397610054e-05
6.273637223215617e-05
5.436718364431074e-05
4.517933203472487e-05
3.612816650654426e-05
2.773266939465726e-05
2.021572971533736e-05
1.360143479575494e-05
7.776044398883494e-06
2.51956987051149e-06
6.68598196725722e-05
6.633924446170399e-05
6.094020806388183e-05
5.305415986363336e-05
4.425517976470685e-05
3.550649500163085e-05
2.733890133403942e-05
1.998741115243022e-05
1.348684463666028e-05
7.73223218681265e-06
2.510473776243194e-06
3.147584330052587e-05
3.814806584676248e-05
3.931817049972594e-05
3.706558107205938e-05
3.288374156345641e-05
2.778235673667996e-05
2.239701713528182e-05
1.708485418142405e-05
1.199843846257357e-05
7.137024072433019e-06
2.377074329500345e-06
2.909389401621568e-05
3.617528606157894e-05
3.77456141473874e-05
3.585411582750408e-05
3.19814007355876e-05
2.713477785908394e-05
2.195301103657751e-05
1.679887340065419e-05
1.18312647766928e-05
7.055588475973306e-06
2.354028320604358e-06
-8.158177381414923e-07
1.129449305240184e-05
1.784782095651323e-05
2.050887211172455e-05
2.057250274911555e-05
1.898956341804624e-05
1.641826268169416e-05
1.328006470862858e-05
9.809105501902325e-06
6.090410984314699e-06
2.085719634097654e-06
-2.658260584405319e-06
9.696787059202065e-06
1.651653087204433e-05
1.943719569562709e-05
1.973758719840113e-05
1.836114519942858e-05
1.596416633078002e-05
1.29694143379823e-05
9.614036436939615e-06
5.986917137102895e-06
2.054124221999435e-06
-2.716335903645028e-05
-1.14586781448649e-05
-1.00635006399649e-06
5.453106425546742e-06
8.974898047499108e-06
1.039150258543714e-05
1.032432686311717e-05
9.208829146925942e-06
7.322589696186007e-06
4.810481676436816e-06
1.704243019513438e-06
-2.856789696316433e-05
-1.273002944539179e-05
-2.109170609861636e-06
4.530309790630987e-06
8.22802331360533e-06
9.80731585514141e-06
9.885118703382514e-06
8.895566144984277e-06
7.116960098209861e-06
4.69622239101128e-06
1.668084206826506e-06
-4.80943428120269e-05
-3.013294607783642e-05
-1.695609788200505e-05
-7.656695582372655e-06
-1.414336578630104e-06
2.464369035406624e-06
4.533242859957432e-06
5.210205366283132e-06
4.788775750707299e-06
3.451976213319252e-06
1.285572941236262e-06
-4.915697629116189e-05
-3.113537787267716e-05
-1.785895548564428e-05
-8.4392572018152e-06
-2.069411230009554e-06
1.9349362430714e-06
4.122171085728903e-06
4.907495805161126e-06
4.58369758636853e-06
3.334521586358739e-06
1.247584525634606e-06
-5.115483548513314e-05
-6.426977035782738e-05
-4.497174295731434e-05
-2.995613519645293e-05
-1.859973720197131e-05
-1.028746491010217e-05
-4.460708280486952e-06
-6.429530922590419e-07
1.550230850840891e-06
2.410913221029557e-06
2.143901806137279e-06
8.744178016212345e-07
-6.507416611236108e-05
-4.576213228659001e-05
-3.069396976222779e-05
-1.926046515591553e-05
-1.085758836129987e-05
-4.934842073976375e-06
-1.021207792444778e-06
1.264424498770849e-06
2.212548052783159e-06
2.027782551432872e-06
8.36297078849866e-07
-6.657419001912911e-05
-4.724613846315522e-05
-3.208550363301749e-05
-7.634253656926001e-05
-5.630659244824549e-05
-4.009545851528661e-05
-2.730073446302553e-05
-1.747242255941461e-05
-1.016793683550186e-05
-4.983691065171502e-06
-1.57303178471176e-06
3.457315616456145e-07
9.880710188124861e-07
5.064877566480821e-07
-7.695878471014194e-05
-5.693709500279168e-05
-4.070442687814319e-05
-2.786268246561032e-05
-1.797064729346251e-05
-1.059270004715424e-05
-5.330395416959674e-06
-1.840551270894528e-06
1.565056300859898e-07
8.754691770721558e-07
4.691210921979316e-07
-7.809620424397929e-05
-5.811199066061386e-05
-4.184612100943288e-05
-2.892052425358791e-05
-1.891115668988673e-05
-8.487922100061715e-05
-6.447041606927209e-05
-4.751839169279619e-05
-3.376643724160804e-05
-2.288655807504518e-05
-1.452609497557837e-05
-8.341333049150975e-06
-4.019625864489352e-06
-1.292155353041895e-06
6.057269692302311e-08
2.087657763046985e-07
-8.536533662956739e-05
-6.498735512486125e-05
-4.803338564106595e-05
-3.425435553281199e-05
-2.332926615004414e-05
-1.491138673752024e-05
-8.661682203478377e-06
-4.270918044366968e-06
-1.472493331397422e-06
-4.805051729397679e-08
1.724387072559015e-07
-8.625200680594402e-05
-6.594277712828425e-05
-4.899299859865274e-05
-3.516843051496099e-05
-2.416173023562423e-05
-1.563779131577077e-05
-9.266794080829048e-06
-4.746254213733979e-06
-9.032105576856342e-05
-6.974487143677158e-05
-5.237092932589325e-05
-3.803850375067455e-05
-2.649933308504493e-05
-1.746145282534725e-05
-1.062306101189243e-05
-5.696602402541142e-06
-2.424136917394314e-06
-5.853740161305424e-07
3.087409884906027e-10
-9.072566533252694e-05
-7.018931220967596e-05
-5.282480769350598e-05
-3.847736404564082e-05
-2.690451066927384e-05
-1.781945881171537e-05
-1.092470045642684e-05
-5.935978342934946e-06
-2.597643403540128e-06
-6.907403306459678e-07
-3.511026486662874e-08
-9.14553018462586e-05
-7.10046531141075e-05
-5.366604756430662e-05
-3.929621875267546e-05
-2.766398912922763e-05
-1.849270437784095e-05
-1.149329550896319e-05
-6.388011790614986e-06
-2.925745955064932e-06
-8.902126932552166e-07
-9.296685733776189e-05
-7.23303567245846e-05
-5.476657704810352e-05
-4.016113112107759e-05
-2.830500724380819e-05
-1.89366879836125e-05
-1.177583443744424e-05
-6.548104131319712e-06
-3.001656577753856e-06
-9.163643226463396e-07
-1.068279118698685e-07
-9.333228547675762e-05
-7.273954189503481e-05
-5.51904044805635e-05
-4.057560117875577e-05
-2.869130962586986e-05
-1.928079729301849e-05
-1.206780562285644e-05
-6.781212506259755e-06
-3.171488295794788e-06
-1.019927932682174e-06
-1.417306511814994e-07
-9.398643829882698e-05
-7.348676955993408e-05
-5.597345028573961e-05
-4.134712825579252e-05
-2.941409580101145e-05
-1.992698331154969e-05
-1.26175441313064e-05
-7.221001544187046e-06
-3.492398536315073e-06
-1.215864532047541e-06
-2.078179220315437e-07
-8.83983645831243e-05
-0.0001004973612666428
-0.0001088678753983478
-0.0001141181464904006
-0.0001166454513646101
6.278644946975439e-05
5.912954631994558e-05
1.660523646691541e-05
1.386081355644652e-05
-2.046928101253729e-05
-2.249054065945119e-05
-4.950229148503473e-05
-5.097168051956983e-05
-7.174509118931672e-05
-7.280503803400283e-05
-7.478232934089973e-05
-8.916198445392767e-05
-9.057019490306336e-05
-0.0001010525655813149
-0.0001020605890036381
-0.0001092829179645654
-0.0001100218468425403
-0.0001144471898021271
-0.0001150210294521377
-0.0001169336722785297
-0.0001174291536585675
2.464956337269377e-06
-0.0001173644465285784
-0.0001285170931054399
-0.0001360198910084951
-0.0001406265229398372
-0.0001428143779116678
-7.947026960415519e-05
-0.0001024600082401458
-0.0001180167771894974
-0.000119195389611938
-0.0001289554417404071
-0.000129725065560983
-0.0001363187637042239
-0.0001368218927936544
-0.0001408418099960549
-0.0001411852843543342
-0.0001429905692154562
-0.0001432593858056951
-0.0001014916505227191
2.453241489102788e-06
7.840213111583923e-06
7.826337610049051e-06
1.427860313718595e-05
6.247901182573551e-06
4.311036285627783e-05
1.89799956718741e-06
3.893975068746059e-05
-4.932936443048574e-05
-9.404868938327389e-06
-5.2270742645711e-05
-1.237254511319071e-05
-8.938918971070494e-05
-4.949156493158815e-05
-9.131682682885554e-05
-5.156301702117954e-05
-0.0001177289658225326
-0.0001189611170732231
-8.08950026396639e-05
-0.0001212219983654479
-8.355088749274443e-05
-0.0001382254120676972
-0.0001395993713820875
-0.0001042428589607737
-0.0001514267476739622
-0.0001522173043980907
-0.0001602729406454058
-0.0001606863509550642
-0.0001659779977432887
-0.0001661552311153491
-0.0001693636475534517
-0.0001694037514029258
-0.0001709360726799319
-0.0001709133403398922
-0.0001374590083673135
-0.0001509672275194641
-0.0001600120405905087
-0.000165841616087354
-0.0001692996394513395
-0.0001709052535797166
-0.0002530049081338567
-0.0001385563051021
-5.318163168643726e-05
-0.0002560481429286858
-0.0001422199120782384
-5.715722316338662e-05
-0.0002765412641810573
-0.0001821415142994958
-0.0001063722229823503
-0.0002770620756431197
-0.0001839616200955377
-0.0001089288328871241
-0.000277372839345056
-0.0002073134199694451
-0.0001419130778514016
-0.0002838978960513194
-0.0002081245832957751
-0.0001434353544409507
-0.0002830855647232543
-0.0002094696720429902
-0.0001462147597753308
-0.0002833752105781367
-0.0002213708962963383
-0.0001659619727122641
-0.0002821061432613974
-0.0002216997549451353
-0.0001674643130801496
-0.0002793830392123364
-0.0002280087272768806
-0.0001803614871186236
-0.000277971036149009
-0.000227783537971225
-0.0001810714353349254
-0.0002741699070864987
-0.0002308080644166118
-0.0001893500361953738
-0.0002727580246243567
-0.0002302894509566999
-0.0001895744378554451
-0.0002690388363331436
-0.0002315408260615694
-0.0001947997698311235
-0.0002676826773979358
-0.0002308737208260063
-0.0001947313013329191
-0.0002647389803557428
-0.000231328407742119
-0.0001979718058997867
-0.0002634488094362373
-0.000230590976491454
-0.0001977315382221049
-0.0002616915956766788
-0.00023086199198984
-0.0001996845245970479
-0.000260454479342234
-0.0002300943508400821
-0.0001993499416854846
-0.0002601199016916384
-0.0002305384552487635
-0.0002004267792732099
-0.0002589115995706518
-0.0002297601929935098
-0.0002000506248017233
-0.0002841681134455534
-0.000221111752238617
-0.0001651099285594578
-0.0002839309530484293
-0.0002800305453591594
-0.0002280501703891063
-0.0001799287734022344
-0.0002748269473026114
-0.0002310098694951093
-0.0001891752859346945
-0.0002696732886523571
-0.000231825085936061
-0.0001947811627463752
-0.0002653434918200906
-0.0002316527775476597
-0.000198045147743842
-0.0002622712911723686
-0.0002312042892618256
-0.0001998085422287516
-0.0002606859640595075
-0.0002308873486156566
-0.0002005732011468868
4.322108596033003e-05
5.560191433000601e-05
3.180295406214876e-05
2.221677057027025e-05
4.269607692930648e-05
3.151787711425103e-05
1.430789995218983e-05
2.20916008348518e-05
-0.0007036846710724417
-0.0005568314614739524
-0.0003996703181789895
-0.0006937353339404033
-0.000551739300643724
-0.000397374076641071
-0.0003863369738131579
-0.0005979342524504188
-0.0004961531726961425
-0.0003844021176295086
-0.000524108661868295
-0.0004499386700343581
-0.0003668235920803856
-0.0004671461953645938
-0.0004118683191313052
-0.0003485622804778768
-0.0004234519726031043
-0.0003811207303643698
-0.0003316700014350754
-0.0003903418095744162
-0.0003568914475908176
-0.0003171414350789147
-0.0003658477269882208
-0.0003384392053120401
-0.0003054047584131539
-0.0003485656112709364
-0.0003251454155926735
-0.0002966046666438694
-0.0003375368902797
-0.0003165417231864609
-0.0002907597686869793
-0.0003321653788232244
-0.0003123171417832049
-0.0002878475048418537
-0.0006048282413671011
-0.0005004901094619166
-0.0003685909634877805
-0.0005290330112033186
-0.0004533180890664115
-0.0004707698769373994
-0.0004144998115908955
-0.0003501235407099938
-0.0004261848019603339
-0.000383195627912097
-0.0003330195270584235
-0.0003924574892975564
-0.0003585580268101342
-0.0003183025483937254
-0.0003675391295552172
-0.0003398127164190244
-0.0003064132476814629
-0.0003499745693496413
-0.0003263175215625364
-0.0002974997603458223
-0.0003387730900424114
-0.000317587911331026
-0.0002915803973968252
-0.0003333195853869421
-0.0003133027966868393
-0.0002886313447333238
-0.0006754823700165362
-0.0005392757012744877
-0.0005848603282151429
-0.0004872962152999045
-0.0003803102930011777
-0.0005144947433529805
-0.0004431815969311926
-0.0003631655928295156
-0.0004599722248815925
-0.0004065927365882352
-0.0003453507095781302
-0.000417994803837287
-0.0003769366590084448
-0.0003288926460723128
-0.0003860864112469611
-0.0003535099157110851
-0.0003147448020792923
-0.0003624226700375362
-0.0003356353662404234
-0.0003033151165827221
-0.0003456950202231831
-0.0003227394781474469
-0.0002947427446557087
-0.0003350061328334571
-0.0003143849440859381
-0.00028904730145548
-0.0003297961051470579
-0.0003102802544509476
-0.0002862088612944977
1.717422634214289e-05
8.393186588715138e-06
3.005798326206473e-06
5.463312543237628e-07
3.057357649083588e-05
1.774904890929603e-05
8.883870629922041e-06
3.34786590328615e-06
6.723145610300083e-07
0.0002097560950334337
0.0001672450134623113
0.0001293584689869345
9.724510983218548e-05
7.092221343171648e-05
4.989553431498894e-05
3.349304014441501e-05
2.10315467426435e-05
1.188999117290455e-05
5.531056233014884e-06
1.492704839851479e-06
0.0002049952422035605
0.0001642707927088371
0.0001276455150591861
9.637638503593095e-05
7.059512003040854e-05
4.989895464052684e-05
3.368051922395534e-05
2.129901301499074e-05
1.215893285251874e-05
5.735977053502312e-06
1.571449625888491e-06
0.0001615788999527099
0.000135815486982846
0.0001099597540472228
8.620563187166384e-05
6.551205869476048e-05
4.813045468996207e-05
3.393609273715734e-05
2.262432845874435e-05
1.38183700679293e-05
7.120209816412948e-06
2.123948680692588e-06
0.0001572529388125048
0.0001328305156531065
0.0001080017070681477
8.499615921688224e-05
6.48284918713981e-05
4.780319161043558e-05
3.383831808607976e-05
2.266067649711882e-05
1.391486661851056e-05
7.21599792994828e-06
2.164647601974107e-06
0.0001138165991437781
0.0001019275210778665
8.69028757470856e-05
7.12694522382166e-05
5.646776078356899e-05
0.0001101257596046888
9.918892983360661e-05
8.495226198093934e-05
6.993695826800245e-05
0.0002535850911581613
0.000246463392173399
0.000183073812478075
0.0001185350807340931
0.0001137884748351754
0.000177128166801841
0.0001044278165911653
8.146133673472342e-05
0.0001101373001893744
7.535332371276756e-05
0.0003113182917664553
0.0002909728377707964
0.0002966394869631838
0.0002808303535339298
0.0001799470836224505
0.000192839828990963
0.0001721313023745635
0.0001852708345197687
-1.288152955414988e-05
-0.0001948746982813878
-6.604421932466021e-05
2.365426039243377e-05
-0.0002086863200250913
-7.279487277649824e-05
1.872263784237279e-05
4.046023025878393e-05
0.0002468245096669347
0.0003025747494293006
7.063393919352863e-06
0.0002218803285274092
0.0002866605921904086
-0.0001551320146259793
4.605477060263788e-05
0.0001262555930625304
-0.0001147735651546264
3.846370876374493e-05
0.0001270185208179734
-0.0008357221523793172
-0.0006228464644656765
-0.0004045070282561421
-0.0008240378055648908
-0.0006215823700765686
-0.0003984186093907793
-0.00151699190999764
-0.0009030876617064497
-3.615149740804222e-05
-0.001491276982331344
-0.000899809756457664
-0.0001607110131710813
-0.001029785365481709
-0.0007378455278768321
-0.0003073348538925332
-0.001019095595770652
-0.0007292177116563837
-0.0002999454576976693
-0.001425446402657233
-0.0008844528740187662
-0.0001685939735695866
-0.000980632397866751
-0.0007193036309777762
-0.0002997220985478594
-0.0008927689135041824
-0.001661396826963323
-0.001145322728833652
-0.00155358068367377
-0.001089920373700515
-0.001630511928574436
-0.001133121988577778
0.0002824645267857986
0.0001817518446713369
0.000114503771274684
6.865032665421099e-05
3.708512759231397e-05
1.562016182405469e-05
1.618063610407259e-06
-6.585840266499126e-06
-9.976549523049027e-06
-9.019489397875159e-06
-3.741622915628058e-06
0.000286252687622802
0.0001853500670866525
0.0001186005714042898
7.262048495583084e-05
4.05822381432137e-05
1.855740603640435e-05
4.009407556287609e-06
-4.70704171215039e-06
-8.592176169141121e-06
-8.143891832094351e-06
-3.435256746965524e-06
0.000292838297856861
0.0002017859344728499
0.0001356789722780355
8.812988246106357e-05
5.409457406781516e-05
3.00345553864917e-05
1.351455218256377e-05
2.886305298196537e-06
-2.917829252181412e-06
-4.516121362212073e-06
-2.158085900950718e-06
0.0002903895739665469
0.0002021805578610799
0.0001374441149416256
9.03300520052006e-05
5.628472776501519e-05
3.20239855447946e-05
1.522640792839489e-05
4.286792640198109e-06
-1.854963850949577e-06
-3.829850725232829e-06
-1.915265590548874e-06
0.0002831592572032445
0.0002048860216279349
0.0001448599489667301
9.95728955246141e-05
6.581878724318851e-05
4.102612324314682e-05
2.324054533539204e-05
1.102678377868803e-05
3.370361225030614e-06
-4.033674026138314e-07
-6.924385569859505e-07
0.0002792779434169274
0.0002034521080579185
0.0001449058521170048
0.0001003583268292094
6.691030026135944e-05
4.218623581144801e-05
2.43382533744007e-05
1.198366777722656e-05
4.129137086721415e-06
1.013658273398969e-07
-5.109904591629606e-07
0.0002528409894983074
0.0001919344600256482
0.0001420263153938758
0.0001023058024064689
7.135293606551209e-05
4.768654097265941e-05
2.9988686158026e-05
0.0002481183714700492
0.0001894106263354272
0.0001409385050061299
0.0001020779878543714
7.160580526305443e-05
4.818106486439527e-05
0.0004232110244902258
0.0003837170919511497
0.0003773943453559828
0.000323908723866368
0.0003162634440299142
0.0004286807005808401
0.0004347772100969009
0.0004208409673399058
0.001059860404363201
0.0005587127493304731
0.001051328524594896
0.0005528814594050587
0.0008421059575386037
0.0005715557223510634
0.0009942354329378019
0.0005556207495439122
0.0009000178075450999
0.0005460674606095257
0.0008614648906517032
0.0005490503607027887
0.0007370679491078599
0.0005132402339700611
0.0007044811145049825
0.0005038238221498383
0.0006705004214449234
0.0004763223125632655
0.0004001813363237097
0.0004585934892654113
0.0003886963827125992
0.002486658359585413
0.001973392393404585
0.001123064789042249
0.001478466955052491
0.001403057003829969
0.0009737431528219863
0.0007402957751742345
0.0008873694375944776
0.0007329222476841328
0.0001089622767463734
0.003002476452870455
0.002197888346592664
0.001164602127489118
0.002594583398620249
0.002027499141604559
0.0011518846909002
0.001813705966812799
0.001612920344253185
0.001054383769244156
0.001547648400395575
0.001447736367348373
0.001017791663223552
0.0009294592828507846
0.001033029684829131
0.0008199264621834015
0.000779399549899457
0.0009171762174836805
0.0007990267348818959
0.0001108905783414731
0.0003785131277821515
0.0004708382630260993
0.00011047996875227
0.0003238188777382461
0.0004549638011916033
0.001620327371894102
0.003181032949660669
-0.00204312286285447
0.001791814216713283
0.002701007317857041
-0.002632575962482786
0.0001692640020253569
0.001807126705605183
-0.00260452495918773
-9.76612768781525e-05
0.001515568543038268
-0.002318512584062366
-0.0006685785123830717
0.0008507801174458649
-0.002298300753129071
-0.0007331140848039571
0.0006956555017801632
-0.001605496132011442
-0.0009145861919372557
9.476734957155492e-06
-0.001576946890581599
-0.0009118967633523955
-8.718867831402593e-05
-0.00249938731129303
0.001386711654926712
0.002575982655687314
-0.002494607050652542
-0.0001626250888431779
0.001440503477207883
-0.002172595901275411
-0.000747505153088585
0.0006555586436086541
-0.001505468277547973
-0.0008959009229207542
-5.235963320746689e-05
-0.003506409274110084
-0.002766350932808469
-0.0017706846661428
-0.004454356770053551
-0.003195287258292209
-0.002554337414757889
-0.001650572433581269
-0.004212012058297188
-0.002736478928408782
-0.001736060528640622
-0.001501626650598912
-0.001051397628721564
-0.001058680679158176
-0.001278923373428604
-0.001287350642483498
-0.0009726537624457097
-0.0009648143517922925
-0.0009083900636779427
-0.0004878893138003454
-0.000493678516371269
-0.0008439699266988431
-0.0005913853810031663
-0.0008297710418402426
-0.0005909670429825676
-0.001046778717274216
-0.001444990241229669
-0.001028452075110163
-0.001271843990529532
-0.001241709708427537
-0.0009073040361296904
-0.0009546201102447235
-0.0004883992976730129
-0.0008901340835631362
-0.0004887312926276467
-0.0007818567408176845
-0.0005920351495533181
-0.0008120985294000279
-0.0005926201965192017
-0.001019268645178105
-0.001230742519869445
-0.0008895730560518155
-0.001642904602582231
-0.001372924215357633
-0.00138367852204607
-0.001310981456603096
-0.001576362313787636
-0.001363679192908192
-0.001325254114418655
0.001058630815312844
0.001010164270070701
0.00100311722891498
0.0008872446344012574
0.0008851540564386609
0.0008252126432852035
0.0008254123852554865
0.001041047671973611
0.0009968924228844274
0.0009803823024865394
0.0008114870028327027
0.0008514421278287447
0.0008286262247703926
0.000809105790180602
0.001707847760573756
0.002161552445024285
0.001608387304711361
0.001659654745580128
0.001545143613449903
0.00131878081247615
0.001014199785914742
0.001447840751446211
0.001238956802454891
0.0008981362158215527
0.00144612331230151
0.00100330827457563
0.001227703210589162
0.001005894262552934
0.0009489016994575174
0.0008561044568119961
0.001162177366025781
0.0009386983765581404
0.0003626394709935564
0.0008738025984395931
0.0005409985084380199
0.0008711330030908117
0.000590994515338653
0.0006574849808544012
0.002087656967517686
0.002019161690832399
0.002956214674218671
0.002578324073361994
0.00259928611430615
0.001867460562082148
0.001821927227525431
0.002218594516072556
0.001846897655116251
0.001855486307868312
0.001769068139909598
0.001456505369046066
0.001730104394038154
0.001433919018825986
0.001161373929671379
0.001087005968688757
0.001057602807725617
0.001538488036354359
0.00154635674423965
0.001354580662559886
0.001336175230015797
0.00178634549501708
0.001974876275236313
0.002851149846407032
0.002325016641299425
0.001663330912167571
0.002454937240049717
0.001792237752035145
0.001736975526601626
0.001593065347372928
0.001349231997485463
0.002150099343494018
0.00179485927491703
0.001704595375108903
0.00141857534283238
0.001139068845412817
0.001052351462953389
0.001022845487581854
0.001471104340626887
0.001264924292089942
0.001520226009834439
0.001323487054830285
0.001753112384716976
0.001118358331137204
0.001078344089997542
0.00168541192728841
0.001643111103814813
0.001180982459961471
0.001148795684107009
0.001361865139905338
0.001576150271771324
0.001340359618937988
0.001167737050370623
0.001068667100285116
0.001138435280545711
0.001048601419921494
0.001023543038625431
0.0008988092175941487
0.0008957014132880336
0.001275074772751646
0.001259100223268234
0.001019083294511489
0.001001750985158812
0.0009435717774684915
0.001713985606383649
0.001052629986945192
0.001496656699142935
0.001040408753762869
0.00161559433564365
0.001128021530378424
0.001257162566519631
0.001039705704374826
0.0009686444624813999
0.00155212635719546
0.001325218360728504
0.001119361664235265
0.001033709975574957
0.0009881058731236554
0.0008941509833267295
0.0008995709571614602
0.001187299468550116
0.0009552977622549393
0.001246575485952206
0.0009867413739467581
0.0008949991562682119
0.0004788164375915081
0.0004572359517711486
0.001032218398403594
0.001003040568693018
0.0006522267455584459
0.0006303610943638045
0.0009782744300666775
0.001006179493023248
0.0009619183615141993
0.000676729766732035
0.0007238491548886876
0.0006590546015601206
0.0007166866154483288
0.0003876430542301469
0.0008729307661814257
0.0004442947083681135
0.0009065452259475584
0.0005566529216807377
0.0009841701328061659
0.000612707255304658
0.0008904386120106058
0.0006054599292072884
0.0007023792123753434
0.0009884547476485055
0.0009515345353569834
0.0006394887138670913
0.0007158312475677046
0.000101627174395339
0.0002858695320086384
0.0002960234958900716
0.0003628064255608345
0.0003439118240469648
0.0005524537785376395
0.0005374954762738597
0.0002568954537099116
9.608464496240234e-05
0.0002769379313229259
0.0002870827654655814
0.0003335908232132756
0.000475327778539833
0.0005169910566078287
0.002490177801864738
0.003185233596650556
0.003253725654133059
0.001074146870343308
0.001732454336412954
0.001010958032540588
0.001629962242045921
0.002114603374618912
0.002037839451253435
0.003126012871471098
0.003402425907995035
0.003487601319268725
0.001925747141926495
0.001827310417045195
-0.001470694241135867
-0.002519919321723656
-0.00214386318571019
0.000237049292982527
-0.0003565544819932595
0.0005189237192905446
-0.000546639093752621
0.002625806683093832
0.0001940544027849518
0.001296585335284202
0.00213631821829503
0.002801779010796339
0.00087260060016251
0.00156473164026696
0.001779025826478495
0.002933344747156005
0.00150398764952843
0.001988345573702676
0.003001555327654093
0.003212197077980633
0.00176443336195927
-0.002421526034714308
-0.002643815034557061
-0.002452693986203265
-0.001057509954528279
-0.001068931975509884
-0.0009557760301023627
-0.0009695852401920861
0.001314846157443887
0.0001134543737713541
0.001232305041449435
-0.0005364235159827661
0.0004205139908095542
-0.0005605731550677827
0.000378979789284232
0.001740356630537844
0.001050264284370325
0.001008217203926538
0.001527364609146616
0.001446366315665727
0.0006406550619546638
0.0005971340172774888
-0.002529020892150053
-0.002400699374314082
-0.002309498716499121
-0.0006020494176087291
-0.001008042073928676
-0.0004727798480036993
-0.0009777787494592456
0.0009635887359193658
-0.0006343690307762009
0.0002436808465441193
7.114540004403143e-05
0.001179778889590022
-0.0005754933655799614
0.0003525962565504338
0.0008670833855625648
0.001180180119514801
0.000453974682329918
0.001697345709213243
0.0009812166689202261
0.001394638964011453
0.0005693799314172655
-0.001988617425195234
-0.002348856163138237
-0.00201351819542935
-0.001044254987749916
-0.001051364461220581
-0.001144553679113424
-0.001141248149960609
0.0002170939153688842
-0.0006847407067817187
0.0001844538030706722
-0.0008773774391570256
-0.0001967851657367
-0.0008799069455862389
-0.0002119957259267274
0.0008151370857293521
0.000387601755340496
0.0003662682373365493
0.0004301218333196594
0.0003951032673254667
-1.582134276272186e-05
-3.370971319850263e-05
-0.002210184857839958
-0.001972076567638237
-0.001900211331694725
-0.001068801182856092
-0.001126233999194043
-0.001055350884336
-0.001138729792940884
7.826070026254534e-05
-0.0008849448106086782
-0.0002606662607874372
-0.0006946157619824943
0.0001637505875768634
-0.0008811931342375805
-0.0002215277151051542
0.0002954309424485402
0.0002799790994767088
-9.158422148398164e-05
0.0007922965385481484
0.0003529846476176888
0.0003727962393558293
-4.496506733468219e-05
-0.001588380191908139
-0.001080494956682838
-0.001087480305628426
-0.001881614728956404
-0.0019044522603896
-0.001143239904436722
-0.001138372945329767
-0.0009189039487428026
-0.0004591032418654536
-0.0004576781817783672
-0.0009050923661357741
-0.0002856196796156175
-0.0009052000802516206
-0.0002971812829519725
-1.765543694231979e-06
-0.0003287110858453088
-0.0003217434770644178
0.0002723325606320159
0.0002540319532307
-0.0001164362928347082
-0.0001307854110363601
-0.001075945925820432
-0.001526755598304001
-0.001056365913577439
-0.001866442900123269
-0.001800505078661102
-0.001118710700883986
-0.00113490740869448
-0.000460912405785422
-0.0009013484276740685
-0.0004706658131999335
-0.0009027674652224513
-0.0003337142573703755
-0.0009049905491755158
-0.0003043566162045716
-9.649437454383126e-06
-0.0003315361562149382
-0.0003455543886256195
0.0001939961440109621
-0.0001761762584959087
0.0002429143708747527
-0.0001396699868235196
-0.002240159912182338
-0.0002414066576795913
-0.0004273366120344976
0.002013024406820276
0.000105490840430405
0.001189508073688854
0.001692550521999372
0.002588836164529216
0.001399024381512908
-0.00227041272391406
-0.0006504447394273592
-0.001018505974575
0.0008771103014574283
-0.0006567230921324777
0.0001999254978887618
0.0008198445654982519
0.001093635509540294
0.0004072086313586893
-0.001869666168400898
-0.001072781762181015
-0.001120210123241395
4.389670208771348e-05
-0.0008856946277738126
-0.0002762807616788802
0.000270963671561975
0.0002423325849651177
-0.0001103473587294586
-0.001047288099673233
-0.001772478043625225
-0.00111126600519999
-0.0004769588739162813
-0.000901157501568936
-0.0003453362603553604
-0.0003547029511651532
0.0001725697513269082
-0.0001906709000059884
-0.002945990336150453
-0.003536098857153968
-0.002995818985082902
-0.002272566821460007
-0.002811716493715047
-0.002305469125148901
-0.001749889807088977
-0.002127074322370191
-0.002156445130416185
-0.003548266218590467
-0.002713348878477315
-0.002117739098912146
-0.001988487609002577
-0.004120448741926561
-0.002913189272126127
-0.002772408292333464
-0.002608191361420988
-0.002250850345397615
-0.002157216195610902
-0.001675951682933221
-0.002107668449013046
-0.002023869176203355
0.0005367691470541183
0.0005462483724517454
0.0005532096475785606
0.003319595363176327
0.002328044586262397
-0.001999762419710782
-0.001448094209003404
0.00331458577947247
0.003566958406154245
-0.003669108012574168
-0.002879892743170525
-0.003659861878076232
0.001063417558033911
0.001063321904183212
0.0008733327566332759
0.0008711658313588511
0.001060554806315082
0.001049294175263458
0.0007981891243954008
0.0008895684028230256
0.001027952449404327
0.0008398883518923176
0.00276597892301849
0.002354406828257718
0.002107491726765909
0.001749052986627341
0.001139962004061771
0.00150308635254044
0.003270495297778925
0.002785116976877921
0.00280629289668043
0.002347785657273956
0.001924521573996113
0.001932132456572026
0.001174893910612719
0.001173270850014571
0.001581195467163465
0.001587405594762229
0.002882813793141877
0.003158532094342662
0.002525277278356982
0.002659406754451837
0.002161611239272067
0.001823382362006679
0.002282070322617684
0.001877453779058485
0.001167903458421434
0.00115758689106676
0.001523990704684052
0.00156638279941543
-0.001440864351339374
-0.001914614658301356
-0.002622123926736969
0.0009304608509325561
0.001778558292680113
0.0004120631855836201
0.0003562106441700256
-0.001904845943374298
0.002619639133811043
0.002759302553782522
0.003458115835213878
0.003994042440275795