/*--------------------------------*- C++ -*----------------------------------*\
  =========                 |
  \\      /  F ield         | OpenFOAM: The Open Source CFD Toolbox
   \\    /   O peration     | Website:  https://openfoam.org
    \\  /    A nd           | Version:  7
     \\/     M anipulation  |
\*---------------------------------------------------------------------------*/
FoamFile
{
    version     2.0;
    format      ascii;
    class       volScalarField;
    location    "0";
    object      Phi;
}
// * * * * * * * * * * * * * * * * * * * * * * * * * * * * * * * * * * * * * //

dimensions      [0 2 -1 0 0 0 0];

internalField   nonuniform List<scalar> 
12693
(
13.99955757229457
12.66623590191904
11.33292974330425
9.999633768466026
8.666344137251937
7.333058185196653
5.999774147274006
4.666490927725667
3.333207914760165
1.999924833591807
0.6666416293074108
13.99958168190207
12.66625678829988
11.33294760055398
9.999648830317252
8.666356643832062
7.333068362404664
5.99978219472257
4.666497012222142
3.33321216716648
1.999927347584147
0.666642461067173
13.99983975753008
12.66648092751248
11.33313953088476
9.999810828731853
8.66649116044432
7.333177771878226
5.999868640280236
4.666562313073331
3.333257767079507
1.99995428860121
0.6666513714679271
13.99985878660016
12.66649767871295
11.33315405975699
9.999823239552127
8.666501579787187
7.333186330338341
5.999875460349523
4.666567501427701
3.333261409882766
1.999956448785641
0.6666520872590643
14.00007537589014
12.66668834343233
11.33331930173895
9.999964190525334
8.666619687865206
7.333283133242185
5.99995242831802
4.666625932620965
3.333302363425882
1.99998070375042
0.6666601190223287
14.00009045736133
12.66670181280701
11.3333311383728
9.999974420564001
8.666628364803559
7.333290323312373
5.999958199941092
4.666630349057843
3.333305477831297
1.999982555974067
0.6666607336611882
14.0002694950204
12.6668612564717
11.33347076875992
10.00009462586287
8.666729896159719
7.333374104828552
6.000025187393208
4.666681428742139
3.333341396734768
2.000003875541638
0.6666678010646032
14.00028153370573
12.66687214931334
11.3334804561467
10.00010308878203
8.666737142584735
7.333380158735218
6.000030080278925
4.666685193316354
3.333344062389333
2.000005465233595
0.6666683293093884
14.00042685511818
12.66700283268532
11.33359591358523
10.00020326616539
8.666822337485435
7.333450870169622
6.000086890532133
4.666728678688333
3.33337472835177
2.000023701403267
0.6666743802753594
14.00043657146335
12.66701172793424
11.33360391050075
10.00021032105135
8.666828430974965
7.333455999294646
6.000091062231172
4.666731904708077
3.333377021399911
2.000025072380323
0.6666748364247235
14.00045561119151
14.0005516282358
12.66711602181627
11.33369672298354
10.0002913730394
8.666897752149577
7.333513814594562
6.000137698354805
4.666767716475981
3.333402336184797
2.000040150201961
0.666679843365835
14.0005595982693
12.66712339509048
11.33370341621531
10.00029733008002
8.666902937907862
7.333518209461077
6.000141293380535
4.666770509398545
3.33340432829947
2.00004134402702
0.6666802410361142
14.00057523794693
12.66713787316259
11.33371656679561
14.00064730776068
12.66720339569492
11.33377501493638
10.00036017470236
8.666956926657763
7.333563408967362
6.000177868501221
4.666798666090883
3.333424269237534
2.000053235931945
0.6666841924757229
14.00065399749565
12.66720964117521
11.33378073253137
10.00036530273651
8.66696142146975
7.333567241040778
6.000181018931025
4.666801123534166
3.333426027418053
2.000054291717906
0.6666845445239984
14.00066714083772
12.66722191808568
11.33379197714403
10.00037539223136
8.666970268460823
14.00071667138944
12.66726706025972
11.3338323289014
10.00041075379965
8.667000590513659
7.333600121294799
6.000207684281013
4.666821687373988
3.333440609988713
2.000062995632397
0.6666874379010824
14.0007224657627
12.66727251048875
11.33383735323515
10.00041528862991
8.667004587819273
7.333603545932803
6.000210511369432
4.666823899930987
3.333442196930205
2.000063950185351
0.6666877564604446
14.00073386137383
12.66728323375386
11.3338472423577
10.00042421739724
8.667012460668893
7.333610292695298
6.000216082170361
4.666828260579872
14.00076178118964
12.66730861220966
11.33386985971577
10.00044397347
8.667029344240335
7.333624352502887
6.000227401189785
4.666836934476501
3.333451444995489
2.000069471928438
0.6666895923111065
14.0007670083896
12.66731355570699
11.33387443987779
10.00044812632947
8.667033019761789
7.333627512586931
6.000230017637434
4.66683898707872
3.333452919862795
2.000070360136417
0.6666898889081071
14.00077729600969
12.66732328830236
11.33388346000699
10.00045630728977
8.667040262245779
7.333633740810756
6.000235175376618
4.666843033937717
3.333455828007428
2.000072111640107
14.00078399820492
12.66732912058237
11.33388841990475
10.00046043096675
8.66704361176866
7.333636392402646
6.00023720926175
4.666844526036264
3.333456843488653
2.000072700199614
0.6666906664778212
14.00078895050959
12.66733381761092
11.33389278331481
10.000464396867
8.667047129366313
7.333639422345858
6.000239721884883
4.666846499670972
3.333458262959605
2.000073555587846
0.6666909522059959
14.00079870085793
12.66734306815345
11.33390137922671
10.0004722116878
8.667054062394374
7.333645395423357
6.000244675981138
4.666850391584985
3.333461062378427
2.000075242664114
0.6666915157653024
15.33400597046825
15.33410871365997
15.33418279636231
15.33423079212924
15.33425437712703
15.33290188680305
15.33292932299506
15.33322197307224
15.33324325023379
15.33348522438814
15.33350182590998
15.33369933314927
15.33371240154707
15.33387103205028
15.33388144871995
15.33390184307624
15.33401442074974
15.33403099125396
15.33411573846208
15.33412953241947
15.33418883291783
15.33420069954079
15.33423620654063
15.33424685873648
15.33425949111718
15.33426955657585
0.6666319688608655
16.65081299137785
16.65092093746727
16.65099833818892
16.65104828739942
16.65107277531887
16.6504867597995
16.65068111000833
16.65082176277899
16.65083895052213
16.65092815743789
16.65094232642702
16.65100449211231
16.65101658387596
16.65105377442638
16.6510645654219
16.65107794152982
16.65108810640588
16.65067017366393
0.6666310068650231
1.999895586057195
1.999892673830537
3.333158278743275
17.94969346308889
16.64961083378602
17.94972698194427
16.64964149250551
17.95008149407895
16.64996711973368
17.95010652633119
16.64999045566929
17.95039026144248
16.65025543699696
17.95040916153436
16.65027334939725
17.95063454560523
17.95064899784095
16.65050065763678
17.95067718085472
16.65052778902212
17.95083723514542
17.95085917551871
16.65070250256861
17.95098260046579
17.95100003056987
17.95109175477044
17.95110598321129
17.95116963448496
17.95118167893663
17.95121971850902
17.95123040376815
17.95124422206382
17.95125425549697
17.95082600860603
17.95097369884111
17.95108450023011
17.95116350175255
17.95121428315713
17.95123912093274
21.85030942191797
20.55003056183314
19.24982909275973
21.85034456653419
20.55006695784634
19.24986473744024
21.85072703298798
20.55045399396587
19.25024106951602
21.85075265222519
20.5504804132881
19.25026722328288
21.85080260146802
20.55077977193914
19.25056332412025
21.85106203528024
20.55079913436246
19.25058275918927
21.85109806526848
20.55083674706832
19.25062052967911
21.85129726809529
20.55104476088562
19.25082933404513
21.85132373631774
20.55107277940866
19.2508578721464
21.85147573641992
20.55123317252617
19.25102063938662
21.85149558045095
20.55125443879768
19.2510425743522
21.85160983858661
20.5513760002621
19.25116699969456
21.85162508535285
20.55139251930771
19.2511842295408
21.85170839126153
20.55148169399308
19.25127609358811
21.85172047835828
20.55149491649195
19.25129002056017
21.85177757461158
20.55155627764958
19.25135349754056
21.85178755912881
20.55156728918277
19.25136519078877
21.85182156451846
20.55160387386601
19.25140308196869
21.85183026326373
20.55161352583802
19.25141339353817
21.85184294277692
20.55162705441119
19.25142728522383
21.85185103132919
20.55163605904027
19.25143693659916
21.85104348098392
20.55103036553733
19.25081468487569
21.85128365660823
21.85146555568964
20.55122227172977
19.25100940558748
21.85160203469595
20.55136755142987
19.25115819382023
21.85170221732185
20.55147494422372
19.25126898849656
21.85177248323655
20.55155066539832
19.25134754076272
21.85181713422654
20.55159896018509
19.25139783463059
21.85183882595186
20.55162247308728
19.25142237662537
7.332925060120385
8.666194018149994
5.999669695065204
4.666412454758452
7.332937118084823
5.999679152427744
3.333153337082278
4.66641955938305
25.75166224935889
24.45112351564494
23.15067164452039
25.75168659840358
24.45115418507304
23.15070609432942
23.15106409823086
25.75194471653858
24.45148685645084
23.15108803094057
25.75213225844126
24.45173144108156
23.15137317207892
25.75227012134555
24.45191289869685
23.15158722297803
25.75237188559242
24.45204789101879
23.15174795408094
25.75244667021602
24.45214774744124
23.15186773781796
25.75250066735837
24.45222023551594
23.15195520232228
25.75253806530349
24.45227065101502
23.15201630473514
25.75256161929895
24.45230249946738
23.15205502504764
25.75257300131029
24.45231791757909
23.15207380472145
25.75192873406423
24.45146613719654
23.15135622490174
25.75212133612018
24.45171704250617
25.75226243602166
24.45190264040752
23.15157497880338
25.752366340299
24.45204040221049
23.15173890913939
25.75244256000796
24.45214213012315
23.15186087962913
25.75249751771732
24.45221587832657
23.15194982892557
25.75253554214567
24.45226711950928
23.15201191028335
25.75255947383911
24.45229946743346
23.1520512253531
25.75257103357811
24.45231512105492
23.15207028619016
25.75173097097247
24.45121250689252
25.75197489320183
24.45152660316408
23.15113429652176
25.75215323592698
24.45175923414654
23.15140598686833
25.75228499370972
24.45193278736779
23.1516109980548
25.75238266139401
24.45206245945044
23.15176556709774
25.75245468070466
24.45215870530147
23.15188112675839
25.75250682000571
24.45222875466326
23.1519657155407
25.7525430032676
24.45227756853659
23.15202491793675
25.75256582372496
24.45230844657555
23.15206248214646
25.75257686022686
24.45232340668335
23.15208071479309
4.66614781908156
3.332970952544926
1.999785845196908
0.6665958255779634
5.999327718106167
4.666158614625251
3.332978350773671
1.999790162693436
0.6665972448674816
13.99838799946871
12.66525586531428
11.33211617609183
9.998965076466259
8.665801197097878
7.332624724161708
5.999436787191703
4.66623906762569
3.333033555676906
1.999822404665496
0.6666078476995919
13.99843695666242
12.6652958893724
11.33214871175867
9.998991351870528
8.665822223208346
7.332641313479964
5.999449578210356
4.666248548655926
3.333040085275569
1.999826227640236
0.6666091064499577
13.99883465061834
12.66562376271254
11.33241703798812
9.999209185885487
8.665997232898821
7.332779800583892
5.999556582886156
4.666327979051579
3.333094841433848
1.999858304777544
0.6666196709450617
13.99887342856737
12.66565613412955
11.33244382963737
9.999231155685298
8.666015041116294
7.3327940015793
5.999567627394497
4.666336221024902
3.333100546041818
1.9998616557128
0.6666207760711744
13.99922387998047
12.66595066053527
11.33268887604749
9.99943290418703
8.666179052962987
13.99925447317537
12.6659766989284
11.33271079281602
9.999451139617413
15.33152028377227
15.33157979094601
15.33205826445665
15.33251667803292
15.33255218824044
15.33210427963415
16.64921434816871
17.94920778534037
16.64917380098227
17.94925313626425
17.94785218316397
16.64800183520002
17.94793727875597
16.64807341571214
17.94860228197129
16.6486420078671
17.94866426947579
16.64869587353132
22.17302055007603
21.84975807666022
20.54947871843232
19.24930258444667
21.84980187044233
20.54952919478547
19.24935185802916
22.17269871832992
20.87253613156395
19.24776504091409
22.17289622101639
20.87268778448811
19.2478663107095
22.17428280386554
20.54875341732911
19.24862867128663
21.84906313426066
20.54882710686828
19.2486984065359
25.7512837547397
24.45064826610756
23.15013915075522
25.75132200129607
24.4506951589132
23.1501900367994
26.23745739824817
24.93636608175484
22.6601458536373
26.23752628915438
24.93640015197586
22.8230813084917
26.07610718165681
24.77532693300652
22.82447167858027
26.07613217050334
24.77540554412352
22.82466915431567
26.23769385120996
24.93661054752986
22.82321275248348
26.07621319838529
24.77546544117203
22.82473146334734
26.72703085125902
26.56279538493663
26.72654638024018
26.56301028661675
26.72663281372994
26.56285800681338
26.72656481561999
13.99617337154972
12.6635296483732
11.33076732861264
9.99791104159212
8.664980474162737
7.33199155995661
5.998957344024467
4.665888667570904
3.332794725064994
1.999683524329426
0.6665622746427939
13.99628453001495
12.66361255273179
11.33082980407987
9.997958469424443
8.665016562442036
7.332018896361428
5.998977748941954
4.665903418291122
3.33280469986987
1.999689294956861
0.6665641634653588
13.99675638380527
12.66397001201346
11.33110250577777
9.998167266333628
8.665176374010366
7.332140448500478
5.999068742697018
4.665969331410856
3.332849333530984
1.999715138615626
0.6665726260100975
13.99684945293214
12.66404095598984
11.33115694068128
9.998209191889821
8.665208646712966
7.332165121433217
5.99908729403878
4.665982817207396
3.332858489997879
1.999720449836195
0.6665743667301494
13.99733653956323
12.66441747443803
11.331448990924
9.998435927607689
8.66538419352923
7.332299896121281
5.999188939614748
4.666056868771452
3.332908843745407
1.999749684700326
0.666583952544397
13.99741269364082
12.66447694082736
11.33149551368388
9.998472323351239
8.665412564766216
7.332321806996776
5.999205546827993
4.666069016006964
3.332917128523216
1.999754504431255
0.6665855344758176
13.99788593784337
12.66485091260209
11.33179084746777
9.998705033337016
8.665594950173004
7.33246323023864
5.99931305522083
13.9979473105681
12.6648999833696
11.33182999242291
9.998736150755304
8.665619526224363
7.332482412690221
15.32944768161085
15.33020424418849
15.3303019261326
15.33090055048208
15.33097708118841
15.32866688023354
15.32881723938962
15.32957053126677
18.42945315341133
16.31931479074295
18.42967093153744
16.31946482646875
17.61873794232378
16.31979409274689
18.43111134459099
16.32029699874232
18.26912347396981
16.32098671950572
18.26952976872282
16.32126098078703
18.27036009158923
16.64636515556266
18.27049518671325
16.64648980065258
18.27079310681666
17.94693545648783
16.64724346465145
17.94705043473305
16.64733804924076
22.32547392406206
21.02712016308136
18.75485812601198
22.32911826942281
21.02984618747789
18.75645033643156
22.33187016884952
21.03206531618678
18.92054485126052
22.17237796251093
22.32337234325118
21.02575939251247
18.75404205435276
22.32504446579287
21.0268099778591
18.75427934401026
22.32782358284392
21.02884503542525
18.75584078388237
22.32885001220129
21.02963649134423
18.75601057419137
22.33107392302775
21.03140504766157
18.92005617555856
22.33170322430252
21.03192518706699
18.92021416895852
22.33469789867892
20.87189301027515
18.92208827077647
22.33496089078908
20.87207561728515
18.92217733324493
24.92290741178228
22.64781659193336
26.22346615576469
24.92263695627058
22.64963239525
26.23001394292779
24.92777402179075
22.65262312969505
26.23037034025023
24.92914396626195
22.65371154507681
26.23399444438478
24.9320266386954
22.65605048957959
26.23409015761204
24.9327676760323
22.65670506025297
26.23717676233955
24.93602328240074
22.65977752408159
26.23725617697121
24.93606232766982
22.66005365684666
26.22920485365661
24.92400342535259
22.650096326415
26.23154194538279
24.92950515790067
22.65399496378126
26.23466120682912
24.93296020896116
22.65687824288187
26.23744871824545
24.93630279585036
22.6601420663878
26.55586670065916
26.5596067719632
26.56253957855143
26.88113127742287
26.55730881581636
26.56022528065829
26.56278730739673
26.88237526825273
26.55969567823964
26.5626119496357
26.23749903005566
25.26161743477395
25.26156721420497
26.2381594033245
26.2381309787643
25.26239083203037
25.26242602857526
24.93631383128162
23.96074148685474
23.9606855498842
24.9371756872079
24.12406513363255
24.93721381542712
24.12409305368751
25.26165021593988
26.23764403666694
25.26179158466969
26.23817806329144
26.23825942089808
25.26261088275779
25.26244805067661
23.96077803032771
24.93654679793914
23.96093791213448
24.77459445291131
24.12422725801164
24.93723845310156
24.12414793042716
25.26185221635141
26.2382929922218
25.26265860414357
26.56283322542443
26.56342911179264
26.56340465717673
26.56355180418056
26.56296503627082
26.56344763867481
26.56352179390355
18.42951940368522
18.43071029754303
18.43080766841706
17.78027400300479
17.7802366086738
17.61876360397046
17.61882589573066
18.42990145270067
18.4308805243704
18.43119355299067
17.45573873542373
17.61848170074352
17.61894732370302
17.61911823884214
22.32829528063686
21.67667678857966
21.35395887874061
20.37823357756474
21.02921092372506
20.05500533227974
18.75606456583708
19.72874696523845
19.73027379001761
22.33125797018119
21.35463858723295
21.35645488200023
20.05552021985814
21.0315580957494
20.05693970718261
18.91985045452456
19.73075306396344
19.73208370551342
22.33344479097795
21.356988606243
21.35839411586092
20.0573678245681
21.03341373996363
20.22088239876129
22.3268326320964
22.32709579573783
22.32356517708323
21.67466787115068
21.67456042182683
21.35276715803319
21.35297962917977
21.02562440474453
20.3768046238496
20.37672969288633
21.02810181017365
20.054116695454
21.02829899254727
20.05427336363117
18.75411415852236
18.75540702142831
18.7555176030235
19.72778438435619
19.72769032613873
19.72944940393164
19.72959423600094
22.32799321376565
22.32726668126838
22.32400177520068
21.67591705868953
21.35371057186261
21.67528848791424
21.35311804954236
20.37768677756859
21.02897919318609
20.05481820145849
21.02606667041828
20.37724033144533
21.02842758301914
20.05437587021967
18.75453067337252
18.75559385716961
18.75592527528585
19.7285252267244
19.73009972652629
19.72799945934342
19.7296891952143
22.32805574441775
22.33035945812129
22.33051905943469
21.35356775268351
21.3537581519547
21.35568056201301
21.35581709087148
20.05470814422486
21.02902257161416
20.05485103787916
21.0308250138514
20.05632486261774
21.03095399253812
20.05643291017305
18.75593771135845
18.75710807784712
18.75721330083844
19.7299969251512
19.73012953379455
19.73150519717485
19.73160720075344
22.33107010082831
22.32820668093331
22.33062317668381
21.35441487936153
21.35629176983235
21.35388231235813
21.35590635486325
20.05534877101829
21.03140319842417
20.05680740551005
21.02913845110173
20.05494458202437
21.03103833998854
20.05650326763552
18.75632054208364
18.75726968682057
18.91962713556834
19.73059292451413
19.731957594897
19.73021654760733
19.73167326248186
22.33121493631684
22.33288791784086
22.33298574089686
21.35629383988087
21.35641594215444
21.35789061543903
21.35797746175751
20.05681051512255
21.03152086877545
20.05690914465016
21.03292751495456
20.05816233987491
21.03301020379223
20.05824914423184
22.33332739800491
22.3313070283284
22.33304985410145
21.35684175436076
21.35828675409492
21.35649582140003
21.35803382514697
20.0572452416666
21.03331060707554
20.22068501972985
21.03159660490559
20.0569729819922
21.03306391117476
20.05830480940556
22.33475388909195
21.52192218414989
21.52187887643371
22.33339690230379
22.33348372998438
21.35834972552512
21.35842766118656
21.5221244120927
22.33479354921101
21.52200467884598
22.33378777384609
22.33354074747011
21.35870576497405
21.35847735734937
24.92040754912291
24.27094595141723
24.27074163166545
24.92455449225027
23.95092984307215
24.92479180949323
23.95128280473277
22.65156409360383
22.65184537341682
22.64802674662784
23.62159238209961
23.62132472995291
23.62600133720338
23.62633729452798
25.90168934708813
26.22825310987018
26.22465348745152
25.57324194915825
25.25328501070656
25.57205541006289
25.57607833526471
24.2726452899794
24.92793530196736
23.95246685024
24.92151963027237
24.27210537775438
24.92532457142506
23.95151060176491
22.65280157813494
23.62308123766507
23.6274681547976
22.65202781006709
22.64850184231252
23.62219447218479
23.6265543938936
26.23323655996139
26.22985524742663
26.23305956002202
25.57859306773018
25.57870403842123
25.25650883004721
25.25670505307642
23.9522586922158
24.92804685544819
23.95256063843612
24.93114586271519
23.95546439402147
24.93134363972689
23.95565581284931
22.6528698588473
22.65530335143596
22.65547039687265
23.62726610229353
23.62755539030342
23.63035538859931
23.63054192427429
26.2312050103983
26.23335090149899
26.23383187705207
25.25450476295445
25.25736891018951
25.25361428018445
25.25683209124001
23.95357834399618
24.93201418433648
23.95630915939266
24.92825852809723
23.95275585392764
24.93147178600428
23.95578015010742
22.65604579584583
23.62853343950636
23.63118005578965
22.65303009446528
22.65557927594714
23.62774263693675
23.63066319315756
26.23573428006031
26.2338465676226
26.23564541093082
25.25738229230078
25.25754840012583
25.25942759061734
25.25953075642792
23.95631820614738
24.93219485541035
23.95648340465704
24.93410718267885
23.9583906998344
24.93421291166637
23.95849842954489
22.65619742229151
22.65793102464335
22.65803168891314
23.63118792625081
23.63134969469169
23.63322741556144
23.63333420889871
26.23449441728797
26.23579208491223
26.23603878380677
25.25811295837058
25.2598855899931
25.25765612422506
25.25959795628405
23.95704935703011
24.93457708101577
23.95887131819871
24.93230402524977
23.95659085920774
24.93428181906846
23.95856878528864
22.65838256009596
23.63190504661242
23.63370455607631
22.65629330095781
22.65809763210417
23.63145500057165
23.63340401345662
26.2372247834959
25.26128733173205
25.26122975896704
26.23617819366422
26.23610249453961
25.25995913725792
25.26004782318975
24.9359635517085
23.96037722630754
23.96031427519798
24.93465233016521
23.95894781575734
24.93474352365957
23.9590416665378
22.65983521782263
23.63520872770352
23.63514652093197
22.65845439170351
22.65854325831448
23.63378045878906
23.63387376766484
25.26132495793229
26.23739153271024
25.26148739467542
26.23622750046549
26.2364385496276
25.26035389327233
25.26010566280564
23.96041878724285
24.93623090093871
23.96059854137348
24.93505866377605
23.95936766892514
24.93480303007013
23.9591030598948
22.65987643778012
23.63525063875446
23.63543118001674
22.65885420888213
23.63419868352766
22.65860162394809
23.63393489140573
26.22607993790324
25.57545596183562
25.25371456391645
24.27457360650708
24.92836103383128
23.95285854609029
22.65312237661405
23.62418472853492
23.62784361356773
26.23402937166604
25.25486701174278
25.25759051223201
23.95391670384967
24.93223852371741
23.95652928900495
22.65624150795343
23.628859675803
23.63139557182581
26.23614181274732
25.25830233307286
25.26000612658354
23.95724078650031
24.93470097016938
23.95899875670328
22.65850308079503
23.63209329452586
23.63383132321067
25.2615564608538
26.23652699234733
25.26045825070259
23.9606745584897
24.93516625852828
23.95947941893317
23.63550820329712
22.65896110216398
23.63431021536843
26.55890040276371
26.55571643156661
26.55873525722962
26.56121715930211
26.55946933300945
26.56113535547229
26.56258334199293
26.56162540988556
26.5615559164376
26.55209117886316
26.55963851494517
26.56159178134345
26.56194522706271
26.88261866394608
26.55900701721085
26.55945489560886
26.56007074707525
26.56127034690277
26.561497152295
26.56273525123959
26.56167065843986
26.56186419427785
16.31883208523098
16.31899776075661
16.31935680529065
22.32205080652709
21.02487111693847
26.22300099228914
26.2203017396587
24.91828499742736
22.64636559751345
26.54911561109913
26.46592814144489
26.54956035764278
18.4290254355663
18.42909621217365
17.77991920673244
17.77987965151707
18.42925821197723
18.42950428691032
17.45542256091462
17.78026457325941
18.42982479691456
17.45594697987634
22.32441637605431
21.67582555353295
21.02636839073761
20.37762657599898
18.75444740169458
19.72821590151014
22.32226877091638
21.67359381316723
21.67347390059265
21.02472211463454
20.37606962597555
20.37598772103584
18.75357393281005
18.75365128634055
19.72717497532736
19.72707300843164
22.32393477454743
22.32276159840147
21.67498386658202
21.67428534720462
21.02602785503498
20.37703190243649
21.02520997438805
20.37654535544278
18.75382836854714
18.75409738959942
19.72797648699061
19.72740793831983
25.90138032708218
26.22227613497234
26.22840624791592
25.24813884371886
25.24553443879455
25.24984054986337
25.2500835879403
26.30163002361791
25.2432972343461
25.24285861716628
24.91786869910377
24.26878049984361
24.26853816572405
22.64660479496276
23.61974093305587
23.61942904862413
26.22089225235937
26.2223702310227
25.57099389532298
25.56954360899388
24.92055105263178
24.27078634545044
24.9192105403418
24.2701508572986
22.648425052759
23.62146878339554
22.64714474245856
23.62044111178983
26.22413092991498
25.57367205894434
24.92217934242142
24.27304139267661
22.6489485209766
23.62274146036878
26.55315259201337
26.54839636695962
26.55433633516712
26.46469942697172
26.55019744568279
26.55344171487446
26.55418609456073
26.55071330249325
26.54701870596186
26.54848484408276
21.52288871987532
22.17356213681758
21.5234217242285
22.17273038783189
21.52260625290083
21.52257305858704
22.17330885819867
22.17333333633887
21.5231665842747
21.52319271161008
21.52276646980551
22.17279766740479
21.52267193515301
22.17345313664674
22.17338487662417
21.52331962912778
21.52324924825593
25.91241636547017
26.23746439479339
25.91213944113253
26.23770753848249
26.23771361613591
25.91214700119752
25.91240977069068
24.61143113878053
24.93634010367253
24.61113638234497
24.93667531541771
24.93665248251836
24.61145501691696
24.61110949000806
22.82290790507767
23.63557566257901
23.63552043523819
22.82350657395951
22.82352839226504
23.47375424965455
23.47378181133865
25.91250640409829
25.91221380582719
26.23755979256621
26.23776765072995
25.912474741423
26.23779695442346
25.91224996304371
24.61152308832089
24.611171603346
24.9364419878246
24.93670493506494
24.61148561311054
24.93674109814429
24.61121490749501
22.82297903706496
23.63561309523845
23.63577086550737
22.82366013016569
23.47391980163011
22.82358210044122
23.47383759043847
26.0757991461584
26.07609199961585
26.07578262249456
25.42568756673234
25.42567283972417
25.42532560918771
25.42534436347396
24.77531017814588
24.12500192940245
24.12498374020732
24.77492253745162
24.12456871571876
24.77494373568695
24.12459072822571
26.07617218241116
26.07583103309283
26.07587799609973
25.42575816794872
25.42543538495864
25.42571093176347
25.42538083932808
24.12509080588763
24.77504040472858
24.12469670891628
24.77535685034014
24.12503446461547
24.77498555009797
24.12463374977429
25.91268509197226
25.91239484570159
26.23774806535445
26.23791435133436
25.91263357509254
26.23796173296341
25.91245360458575
23.96100499933952
24.77469166962255
24.12432908222836
23.47346164439482
22.82376620256818
23.47401961552773
26.07593689672753
25.4258161662882
25.42550638456175
26.88835987006497
26.56280174290502
26.88815205889442
26.56302293160036
26.56302842763592
26.88815771516353
26.88835496597944
26.72629604452616
26.72653562562636
26.72628322042414
26.88855907502202
26.56305951020677
26.8883430328092
26.56321037693608
26.5632532683746
26.8885208488806
26.88838687248444
26.72640708844233
26.88842646160571
26.56288846193979
26.88820766524164
26.56307741691439
26.56310397484816
26.88840306456974
26.88823470455746
26.72659184513383
26.72632188986309
26.72635898107036
18.42947535528949
18.10486541091402
18.10484488522217
18.10525398985855
18.42987768401746
18.42989849165668
18.10523443941375
16.31936705852638
16.96872949003533
16.96878933944398
16.31981216486544
16.31985851850402
16.96930992550965
16.96936292500997
18.42977671760284
18.10514193188691
18.10504525566793
18.10551023872038
18.43008087324712
18.10542266801147
18.43017951519041
16.31961083649002
16.96890752384966
16.96907386620066
16.31994493153901
16.32008050105295
16.96946634028038
16.96961714662991
18.43020205382707
18.43132245842748
17.61934388031604
16.96928992335225
16.32024057114235
16.96981069215038
18.26900066805003
18.26967934087175
18.26972718755738
17.6194297192329
17.61947987860773
17.62006401572588
17.62010900244649
18.26930240041138
18.26983206844828
18.2699841678333
17.61958477972075
17.61973817810701
17.6201999966034
17.62033403549843
18.27017934019324
17.61993455507891
17.62050367421672
22.32593422511234
22.00129811014487
22.00087196458772
22.00217903023471
22.32647360031548
22.00179680469666
22.32688422097421
21.02745535137801
20.70284622143351
20.70253736533923
20.70348847094319
21.02784629378934
21.02815137282494
20.70320613038752
18.75504690263897
19.07970508166411
19.07950044862666
19.08013360904858
18.75526624152194
18.75544289021806
19.07994302663511
22.0052392770633
22.32940800712305
22.32988478718635
22.00427013892369
22.00454395874633
22.00499459078731
22.3301424986366
20.70582351978247
20.70506433360382
21.03044909365648
21.03007401285122
20.70527786245265
21.03065535137848
20.70562940278815
19.08176856278852
18.75687281414804
19.08121946029454
18.75659445432511
18.75702433827887
19.08137331607901
19.08162080481202
22.00758898705092
22.33205164247359
22.33243671055653
22.0068880267112
22.00706253212645
22.00743307501429
22.33259825151621
20.70774429282251
20.70715592744518
21.03254231381965
21.03221832729039
20.70730226929065
21.03268130815879
20.70760960557993
18.92118285154298
19.57030877455716
19.5710198566822
21.52227574591501
22.33389206433203
21.35879996216182
20.87221817347509
20.22220844057985
20.87155000477759
20.22158569572973
22.32343700798767
21.9989974902487
21.99893827348582
22.00012394272128
22.32460940818206
22.324666518757
22.00007131258961
20.70128929388721
21.02589239087012
20.70141087499999
20.70206896239301
21.02673252990296
21.02661222687481
20.7021794759556
18.75406619099127
19.07863761990356
19.07861128868423
19.07914117092709
18.7545051339657
18.75452756922948
19.07911679232515
22.00047524535182
22.32465203370812
22.00011344956601
22.00111825128439
22.32609126433396
22.00144162558314
22.32574252835463
20.70225205830229
21.02652862289311
20.70199368777982