/*--------------------------------*- C++ -*----------------------------------*\
  =========                 |
  \\      /  F ield         | OpenFOAM: The Open Source CFD Toolbox
   \\    /   O peration     | Website:  https://openfoam.org
    \\  /    A nd           | Version:  7
     \\/     M anipulation  |
\*---------------------------------------------------------------------------*/
FoamFile
{
    version     2.0;
    format      ascii;
    class       surfaceScalarField;
    location    "0";
    object      phi;
}
// * * * * * * * * * * * * * * * * * * * * * * * * * * * * * * * * * * * * * //

dimensions      [0 3 -1 0 0 0 0];

internalField   nonuniform List<scalar> 
36699
(
1.795222391898491
-3.414791782257812e-05
-0.0003541911231899064
-1.795252880606046
0.0004188413873451056
1.795201506420605
-2.958266395997377e-05
-0.0003075493655693151
0.0003580271161832013
1.795187794692897
-2.529231951490532e-05
-0.0002633195838219932
0.0003023299360711109
1.795179253456118
-2.133302494295967e-05
-0.0002222411612491554
0.0002521193019182814
1.795174299731562
-1.771383755057793e-05
-0.0001845394552670854
0.0002072092454470817
1.795171722488696
-1.441460474807023e-05
-0.00015010190376417
0.0001670949233237104
1.795170620606156
-1.139809565859304e-05
-0.0001186050147170547
0.0001311055310431004
1.795170342457127
-8.617846044899727e-06
-8.960091913667867e-05
9.849710366365716e-05
1.795170434287388
-6.022944234884627e-06
-6.257325600602263e-05
6.850439569294764e-05
1.795170600054338
-3.560721737020978e-06
-3.697111525147179e-05
4.036604518422179e-05
-1.178072429794763e-06
-1.22280911173952e-05
1.333299664772317e-05
1.795226731742947
-0.0003478141727719745
-1.795257359614475
0.0004107033673019531
-6.640924070107742e-05
1.795205584929287
-0.0003023590012292316
0.0003515604524880089
-5.763730143826276e-05
1.795191558497297
-0.000259141896195007
0.0002972345400522344
-4.935853172851652e-05
1.795182693946135
-0.0002189136603218772
0.0002481359129085456
-4.169072721181096e-05
1.795177436064751
-0.000181919612641579
0.0002041232699019165
-3.465961470391068e-05
1.795174590057639
-0.0001480700960678943
0.0001647342497404648
-2.823275286384085e-05
1.795173263580938
-0.0001170644420928631
0.0001293358459311398
-2.234302458013857e-05
1.795172809235657
-8.847610628759384e-05
9.721666699499996e-05
-1.690406326853867e-05
1.79517277493765
-6.180809906286555e-05
6.763926222941308e-05
-1.181981087082179e-05
1.795172865060334
-3.652702534092195e-05
3.98661924418589e-05
-6.990012575718613e-06
-1.208253051645118e-05
1.316952792131552e-05
-2.313026651914643e-06
1.795272424702265
-2.695204064802844e-05
-0.0002957416657354458
-1.795303911640701
1.795248951888023
-2.372575401775015e-05
-0.0002603427407761501
1.795231859684471
-2.057813403973666e-05
-0.0002256434169827943
1.79521969623001
-1.757820697944698e-05
-0.0001924954924893456
1.795211241033636
-1.475755523296589e-05
-0.0001613240731231442
1.795205509330149
-1.212187269704026e-05
-0.0001322466775199871
1.795201733417882
-9.659682990557562e-06
-0.0001051684336230341
1.795199335141685
-7.348584943344437e-06
-7.985350117524167e-05
1.795197897808273
-5.159525982731352e-06
-5.59761037344597e-05
1.795197141997318
-3.059601883825681e-06
-3.315556660380746e-05
-1.013818964722539e-06
-1.097968898193022e-05
1.795275491690994
-0.0002907867485109351
-1.795306938535283
-5.25326204896736e-05
1.795251944094268
-0.0002562234835854938
-4.631367521667962e-05
1.795234711490123
-0.0002222641936304541
-4.022323323334699e-05
1.795222377612077
-0.0001897582355871564
-3.43997549269335e-05
1.795213746579339
-0.0001591370550277731
-2.890908170392924e-05
1.795207849949227
-0.0001305291122246276
-2.376622835536811e-05
1.795203930405458
-0.0001038524528691725
-1.895213055205211e-05
1.795201416115864
-7.888461163132077e-05
-1.442579196836217e-05
1.795199894048626
-5.531287333406404e-05
-1.013268609730842e-05
1.795199086769707
-3.276902270304258e-05
-6.010326643174868e-06
-1.085272541552997e-05
-1.991831036019084e-06
1.795310397273571
-2.136081389845693e-05
-0.0002436529772918123
-1.795341117441957
1.795286173994301
-1.907750259633257e-05
-0.0002170356769827458
1.795267417598316
-1.676495148501318e-05
-0.0001901172263307956
1.795253133938816
-1.448943205899177e-05
-0.000163718837454141
1.795242432474568
-1.228968069655948e-05
-0.0001383304110465205
1.79523455627289
-1.018373799185188e-05
-0.0001141850256438388
1.795228888849224
-8.174704232401464e-06
-9.132518403912951e-05
1.795224948523386
-6.255270779525565e-06
-6.965720036152467e-05
1.795222377491599
-4.411123660416821e-06
-4.899353252872213e-05
1.795220930151771
-2.623418096517688e-06
-2.908459311972909e-05
-8.705507611672982e-07
-9.642287535234861e-06
1.79531256784637
-0.0002398337564177566
-1.795343164081576
-4.171757047709208e-05
1.795288372363194
-0.0002138016837999669
-3.730381921377654e-05
1.795269580763977
-0.0001874195507010698
-3.281799574139726e-05
1.795255225077456
-0.0001615007977850338
-2.839118429774114e-05
1.79524443443635
-0.0001365348701654057
-2.410122579083135e-05
1.795236466110611
-0.0001127589445415651
-1.998558151831311e-05
1.795230713510641
-9.0222217140834e-05
-1.605234176486299e-05
1.795226701615733
-6.883900033470108e-05
-1.22889889127234e-05
1.795224076929191
-4.843027284005369e-05
-8.669039031791733e-06
1.795222596471281
-2.87550705980705e-05
-5.156913279197743e-06
-9.533848080837253e-06
-1.711459196199061e-06
1.795338949760211
-1.705112941404394e-05
-0.0001975140537665083
-1.795368032052099
1.795315049526215
-1.542820061425245e-05
-0.0001777025577951011
1.795295735257842
-1.372084085389029e-05
-0.0001570783324575756
1.795280368207466
-1.19865521672277e-05
-0.0001363623107477875
1.79526833332803
-1.026355680476208e-05
-0.000116029801940735
1.795259078118308
-8.574519814472187e-06
-9.635373843682375e-05
1.795252132183777
-6.930094533370002e-06
-7.744807782310952e-05
1.795247114524225
-5.331997661591929e-06
-5.930682902024098e-05
1.795243733892193
-3.775530270053436e-06
-4.183692616788192e-05
1.79524178599228
-2.251578355738634e-06
-2.488487459546169e-05
-7.481855326978261e-07
-8.258043850362141e-06
1.795340492556907
-0.0001945991164604794
-1.795369418486363
-3.335983956693099e-05
1.795316672585081
-0.0001751952345090589
-3.021467798889303e-05
1.79529738391601
-0.0001549564995821672
-2.689522336457845e-05
1.795282006129936
-0.0001345949863260643
-2.351457854149204e-05
1.79526993896882
-0.0001145826691162993
-2.014859802764486e-05
1.795260641350094
-9.519297804523325e-05
-1.684286919062731e-05
1.79525365137461
-7.654286420423941e-05
-1.361947378904775e-05
1.795248594141033
-5.863085029103417e-05
-1.048291587875961e-05
1.795245182598973
-4.136924086852358e-05
-7.425021728696558e-06
1.795243215155076
-2.461034967216813e-05
-4.428856441144177e-06
-8.167551662315752e-06
-1.471824825424904e-06
1.795360201632821
-1.376185641177585e-05
-0.0001566117752306882
-1.795387338226423
1.795337173216893
-1.259888735205595e-05
-0.0001420718746947524
1.795317957418865
-1.132652259775762e-05
-0.0001265331758155244
1.795302178972644
-9.992268272340981e-06
-0.0001105893177154367
1.795289439921659
-8.630583460958386e-06
-9.465840602299242e-05
1.795279358297606
-7.26469479032374e-06
-7.900610578721218e-05
1.795271592375395
-5.908633560081604e-06
-6.377257743164244e-05
1.795265854560302
-4.569209877250355e-06
-4.899915414640067e-05
1.795261918427084
-3.2477849121193e-06
-3.46525904202366e-05
1.795259621661504
-1.941798994023771e-06
-2.064607835730795e-05
-6.46072349938609e-07
-6.857120450084206e-06
1.795361307180279
-2.696713634479541e-05
-0.0001544198529838785
-1.795388281163348
1.795338382758642
-0.000140161534046453
-2.47081660817049e-05
1.795319225794373
-0.0001248968279154808
-2.222923041996758e-05
1.795303473424262
-0.0001092113325390016
-1.962355289134325e-05
1.795290738369571
-9.351904680430599e-05
-1.695915239265888e-05
1.79528064740331
-7.808448476984341e-05
-1.428222344748141e-05
1.795272865665027
-6.304875299461382e-05
-1.162100831564317e-05
1.795267110739912
-4.845554251424735e-05
-8.989594421135552e-06
1.795263159929948
-3.427486702898651e-05
-6.391350349707774e-06
1.795260853411644
-2.042372206558411e-05
-3.821909397827653e-06
-6.783719133910671e-06
-1.271723184298228e-06
-0.0001501522033605787
-1.795390105073363
0.0001889339347855937
1.795363454613888
1.795375798643459
-1.128844793181951e-05
-0.0001200943001826715
-1.795401025077265
1.795353841642632
-1.044322112105406e-05
-0.0001096692821676015
1.795335060460514
-9.480035217279375e-06
-9.826989942496311e-05
1.795319268126676
-8.437322497512162e-06
-8.635794936664084e-05
1.795306230208007
-7.344907955661527e-06
-7.427421028264709e-05
1.795295699365685
-6.2247193654358e-06
-6.224948861175783e-05
1.795287439886842
-5.091855731007756e-06
-5.04204596438925e-05
1.795281244177787
-3.955787742215641e-06
-3.884710283315791e-05
1.795276943269762
-2.821554355514279e-06
-2.75297627414332e-05
1.795274413132928
-1.690887755736951e-06
-1.642484729426813e-05
-5.632448499436134e-07
-5.458882760285994e-06
1.795376602137189
-2.215143596336574e-05
-0.0001184873047916736
-1.795401671696879
1.79535475727123
-2.050618270950948e-05
-0.0001082537063394708
1.795336051689292
-1.862597454551115e-05
-9.704530705789695e-05
1.795320306603241
-8.531740330502184e-05
-1.658616659836764e-05
1.795307295087287
-7.340695355022611e-05
-1.444548657170652e-05
1.795296776294171
-6.154308624049341e-05
-1.22473263637346e-05
1.795288519861467
-4.986241510622033e-05
-1.002176279827346e-05
1.795282322408401
-3.842601851293075e-05
-7.787860532776234e-06
1.795278018109696
-2.723613504862498e-05
-5.555989176286944e-06
1.795275485098467
-1.625158441907287e-05
-3.330015275651543e-06
-5.401619266394937e-06
-1.10932260942439e-06
1.795378166156063
-0.0001153539732765927
-1.795402924988412
1.795356544644122
-0.0001054908689921606
0.0001364377573646006
-9.465298905643937e-05
0.0001217036405547303
1.795337990781734
1.795386981602825
-9.475082496802578e-06
-8.706331335722631e-05
-1.795410535800116
1.795366069807008
-8.845857318068744e-06
-7.991000547669103e-05
1.79534783845795
-8.098180931171114e-06
-7.193890781209689e-05
1.79533223040289
-7.263149715992019e-06
-6.348548763581353e-05
1.795319129176006
-6.36627826813305e-06
-5.480566739544473e-05
1.795308388413318
-5.427600937282719e-06
-4.608030064368052e-05
1.795299854673925
-4.462147219444643e-06
-3.742394429711055e-05
1.795293384334689
-3.480627854357745e-06
-2.889567948829074e-05
1.795288855557864
-2.490219050246701e-06
-2.051046009070166e-05
1.795286176367838
-1.495374494137157e-06
-1.225010678369964e-05
-4.986275891822318e-07
-4.073568370891626e-06
1.795387579760003
-1.861572260923483e-05
-8.593948003703447e-05
-1.795410986944074
1.795366780566873
-1.738854231595751e-05
-7.891182803376751e-05
1.795348632259486
-1.592643552267021e-05
-7.10687454247769e-05
1.795333082991318
-1.429037121641615e-05
-6.274091447691483e-05
1.795320021506152
-1.253053680672577e-05
-5.418121113169894e-05
1.795309306197749
-4.556889894706392e-05
-1.068648146151929e-05
1.795300787730768
-3.701809511332119e-05
-8.788002083645459e-06
1.795294325842057
-2.85883049713035e-05
-6.856454378500983e-06
1.795289801281968
-2.029552558850542e-05
-4.906270062518609e-06
1.795287123900363
-1.212304191444364e-05
-2.946536336531715e-06
-4.031534012778674e-06
-9.825669335770589e-07
1.795388746348284
-8.374577636167196e-05
-1.79541186295112
1.795368170482137
-7.696173521800522e-05
1.795350187543125
-6.936737163607895e-05
1.795334755933915
-6.128400131595764e-05
8.328288090206511e-05
-5.295849565637835e-05
7.17099346301711e-05
1.795321774511265
1.795394654985394
-8.206926709458612e-06
-5.662057680202853e-05
-1.79541688969562
1.795374620436016
-7.719494119800879e-06
-5.215486130634103e-05
1.795356906476291
-7.116272465820443e-06
-4.710764288235722e-05
1.7953415412815
-6.422958607011143e-06
-4.169641382030952e-05
1.795328488912551
-5.661629441436347e-06
-3.60908845173924e-05
1.795317674122121
-4.850525145389212e-06
-3.041434394845186e-05
1.79530900297839
-4.004178954531336e-06
-2.474811998336464e-05
1.795302379193746
-3.133780360072861e-06
-1.913774246096544e-05
1.795297716472631
-2.247682699518805e-06
-1.359980160842156e-05
1.795294947373937
-1.351991978349041e-06
-8.128868127687862e-06
-4.511951945757201e-07
-2.704156041596227e-06
1.795395118350999
-1.614030391859353e-05
-5.59086765266247e-05
-1.795417215776734
1.795375193873603
-1.518801896547887e-05
-5.151882565535004e-05
1.795357565557781
-1.400657162520247e-05
-4.65501307660619e-05
1.795342265020039
-1.264636153718875e-05
-4.121697462267093e-05
1.795329259968561
-1.115080044835325e-05
-3.568698991784913e-05
1.795318478679979
-9.555854073680737e-06
-3.008228311252026e-05
1.795309830401047
-7.890267483528947e-06
-2.448372949181987e-05
1.795303221540333
-6.176254831124917e-06
-1.893697164593691e-05
1.795298567938618
-1.345912917736591e-05
-4.430478739120331e-06
1.795295803693878
-8.045593744742984e-06
-2.665196437007295e-06
-2.676589477842256e-06
-8.894863910839693e-07
1.795396023616878
-5.451795673659174e-05
-1.795417849960543
1.795376316986991
-5.027536431343805e-05
1.7953588586075
-4.54593942835944e-05
1.795343686737796
-4.027834787036699e-05
1.795330776164464
-3.489577236324507e-05
1.795320062028226
-2.943142768343148e-05
4.456694260850707e-05
1.795311459784335
-2.396526579321707e-05
3.622252717944126e-05
-1.854311121625882e-05
2.798551553500089e-05
1.795304881118733
1.79539944537661
-7.403604348571476e-06
-2.788618470790095e-05
-1.795420775443677
1.795380034607842
-7.001778880835903e-06
-2.574154367529502e-05
1.795362711123779
-6.487164756661017e-06
-2.329623719441803e-05
1.795347554355656
-5.881949917135547e-06
-2.065699591382232e-05
1.795334578160768
-5.20586677177895e-06
-1.790820796028174e-05
1.795323752303716
-4.475821112848166e-06
-1.511215004850221e-05
1.795315021253251
-3.705835494525641e-06
-1.231082136321504e-05
1.795308319765502
-2.907226594222088e-06
-9.528716391038472e-06
1.795303585165277
-2.088945141606704e-06
-6.776039688638228e-06
1.795300766484756
-1.258023515116208e-06
-4.052036927789324e-06
-4.200885384968145e-07
-1.348264430571262e-06
1.79539982736194
-1.457098815146029e-05
-2.754114371228411e-05
-1.795421027510482
1.795380523812884
-1.378487255427043e-05
-2.543218285389059e-05
1.79536328645613
-1.27757629719837e-05
-2.302417611765862e-05
1.795348197057191
-1.158719651870335e-05
-2.042232986388954e-05
1.795335272160418
-1.025797488699865e-05
-1.770998637253477e-05
1.795324484271285
-8.821415913318118e-06
-1.494880086275028e-05
1.795315780430827
-7.305222775144774e-06
-1.218050369544699e-05
1.795309097644306
-5.731814919271471e-06
-9.429598545533138e-06
1.795304375060145
-4.118983856807289e-06
-6.706507712905541e-06
1.7953015630467
-2.48076224170497e-06
-4.01084249084274e-06
-1.334622182232675e-06
-8.28426300447653e-07
1.795400574663088
-2.686677503049852e-05
-1.795421518385712
1.795381483097684
-2.482712344153981e-05
1.795364416337121
-2.249171026313945e-05
1.795349460648506
-1.996276165099646e-05
1.795336637789299
-1.732156581811044e-05
1.795325925602389
-1.462854823746118e-05
1.795317276151676
-1.192489671277468e-05
1.795310630841842
-9.235115890719395e-06
1.79530593239458
-6.570038076229346e-06
1.318308396760137e-05
-3.929974961014437e-06
7.88214908808982e-06
1.795303133798551
1.795401745941788
-7.014253264161949e-06
-1.795422617334435
1.795382657698077
-6.652690005695877e-06
1.795365542248671
-6.180165652892024e-06
1.795350502991708
-5.617148105840861e-06
1.795337577503529
-4.982189600474715e-06
1.795326757300415
-4.291494652658433e-06
1.795318005628608
-3.558782456181531e-06
1.79531127257303
-2.795380055256086e-06
1.795306507214178
-2.010483883671494e-06
1.795303666832564
-1.211538888154615e-06
-4.046943629680828e-07
1.79540208965286
-1.381001717517507e-05
-1.795422835032355
1.795383106891537
-1.31021115272745e-05
1.79536607746722
-1.217491795557635e-05
1.795351106599146
-1.10686106434273e-05
1.795338234095409
-9.81967343973691e-06
1.795327453834949
-8.460036507784694e-06
1.79531873133801
-7.016790792549533e-06
1.79531201871495
-5.512356838227633e-06
1.795307266711262
-3.964988807228394e-06
1.795304433839133
-2.389509726213956e-06
-7.982036680703152e-07
1.795402762605672
-1.79542325930592
1.795383988304931
1.795367129150611
1.795352293870078
1.795339526600271
1.795328825820407
1.795320161490541
1.795313489681691
1.795308764401059
1.79530594657446
1.307839035902363e-06
-0.0001289604199614846
0.0001693709797907851
-1.196865265384872e-05
-1.795429464314356
-9.298656430463055e-05
-9.949658653440498e-06
-1.795436558319515
-6.024296262082431e-05
-8.54994431685617e-06
-1.795441082345857
-2.960323861130633e-05
-7.668763382223496e-06
-1.795443745811418
-7.243258314598339e-06
-1.795444976919775
-3.88595637771966e-05
-0.0004017634551312285
-1.795295743264312
0.0004835034218178251
-0.0003940328099987326
-1.795300137090198
0.0004733691402861157
-7.541841814425296e-05
-3.013615066397713e-05
-0.0003304257896132867
-1.795345100511245
-0.0003245570556331771
-1.795347907591974
-5.864284807738117e-05
-2.351375498515772e-05
-0.0002687434105237774
-1.795379277227926
-0.0002643087306897575
-1.795381064573945
-4.586158712466083e-05
-1.850957441007495e-05
-0.0002155117240185689
-1.795402748090915
-0.0002121833480355658
-1.795403879008408
-3.617443452593269e-05
-1.475376901538646e-05
-1.795418721115172
-2.888577935624575e-05
-0.0001669028235879906
-1.795419429677093
-0.0001621032299648285
-1.795420790700262
0.0002057241782227671
-2.346982283326239e-05
-0.0001271711975618928
-1.795429902152005
-0.0001236861525684235
-1.795430743739971
-1.953722902699077e-05
-9.174614445451699e-05
-1.795436824426314
-8.932700745242909e-05
-1.795437335771591
-1.68074269177641e-05
-5.946206448115277e-05
-1.795441242373677
-5.793774906502126e-05
-1.795441549346688
-1.508735920197041e-05
-2.922615815360406e-05
-1.795443844820713
-2.848970183454592e-05
-1.795444034070183
-1.425632730235851e-05
-1.795445048121387
-1.795445183674207
1.362533778807777e-06
-1.795144227439336
1.40488808535455e-05
-2.673451378201333e-06
-0.0001321036797803366
-1.211288729114078e-05
0.0001747793333503727
-1.795460024592128
-9.47224693587369e-05
-9.970435617292709e-06
-1.795463967624876
-6.112749933548367e-05
-8.498275159818308e-06
-1.795466178254554
-2.996814693783289e-05
-7.577322945518174e-06
-1.795467327474938
-7.134291310542898e-06
-1.795467810609637
-0.0002244606223640774
0.0002830912504118351
-1.7954421803984
-1.919225148923327e-05
-0.0001721298907142454
1.510257084825719e-05
0.0002208363678036138
-1.795453696617884
-2.954210705335637e-05
-2.37354548175972e-05
-0.0001302050498088724
-1.795460204424629
-0.0001265107194647896
0.0001669840644911597
-1.795460539113542
-1.956669928120742e-05
-9.341784811094568e-05
-1.795464015363994
-9.087575389661113e-05
-1.795464097463977
-1.669814980932393e-05
-6.031135608708381e-05
-1.795466148990823
-5.87194850161695e-05
-1.795466083655217
-1.490185096325293e-05
-2.957553451565787e-05
-1.795467256114112
-2.88092938340867e-05
-1.795467110097203
-1.403720979453732e-05
-1.795467720737435
-1.795467539221033
-1.79545329587242
-1.795141601592835
1.422853403827999e-05
4.124765473623112e-06
-1.795142982652334
4.2588432281931e-05
-8.091792765449645e-06
-1.795140250163955
4.313908721202922e-05
6.999177972901755e-06
-1.795141081432833
7.246449424000617e-05
-1.372563061728338e-05
1.795352202370619
-4.628794314243049e-05
-0.0004748696495688876
-1.795425393354972
0.000594369079136172
-4.233823166592677e-05
-0.0004360202855884696
0.0005348377312124342
1.795356152082093
-0.0004644838031637732
-1.795428329018254
0.0005798890752970464
-8.951627896119846e-05
-0.0004270587131877759
0.0005227362935528813
-8.200081998556082e-05
1.795396040762526
-3.456834831894212e-05
-0.0003778673700411509
-1.795458461317857
-3.222581584229021e-05
-0.000352840678406352
1.795398383295002
-0.0003703628744883488
-1.795460010076155
-6.706249582199577e-05
-0.0003462033932826644
-6.260543254250769e-05
1.795424281377148
-2.610012688758207e-05
-0.0002989532736690215
-1.795477086555017
-2.473617182852557e-05
1.795425645332212
-0.0002935100179717774
-1.795477825332959
-5.077298241560926e-05
-0.0002781782558921783
-4.818055094336607e-05
-1.99578493292183e-05
-0.0002343110999390349
-1.79548685899255
1.795442945996246
-3.891939996592059e-05
-0.0002303635150205282
-1.795487130948629
-3.746715118056437e-05
1.795444398245035
-0.0002227238146552679
-1.795487621307569
0.0002830054323889246
-0.0002138132332767384
1.795406048274824
0.0002686840945336685
-3.029861073034967e-05
-0.0001778970765422086
1.550331631005138e-05
-1.795491367761649
1.795454453121565
-0.0001723774401867217
-1.795491360293873
-2.407014372352023e-05
-0.0001335822852334791
1.229271979435697e-05
-1.795492741792124
-0.0001296641118649263
-1.79549246524558
-1.96487992672325e-05
-9.530865751980663e-05
1.001817473300157e-05
-1.795492658367259
-9.26359066279108e-05
-1.795492242053225
-1.663281420909094e-05
-6.129248323243537e-05
8.469011428211035e-06
-1.795492001362494
-5.962911278128055e-05
-1.795491516367235
-1.47558340455215e-05
-2.998728137981743e-05
7.505962127396514e-06
-1.795491311444312
-2.918958122894814e-05
-1.795490795396695
-1.38556933890755e-05
7.044419110998823e-06
-1.795490896744777
-1.795490369141127
-0.0001807422911472407
-1.795491357736285
-0.0001355979757066796
-1.795492874018802
-9.668151830090994e-05
-1.795492864748898
-6.214593271636204e-05
-1.795492244347383
-3.039629849430997e-05
-1.79549157108239
-1.795491162623158
1.795623187736197
-4.853304144825657e-05
-0.0005110695474097823
-1.79573830740334
0.000674732524051457
1.795516314434707
-5.026116109373515e-05
-0.0005181933238183518
0.000675342148108669
-4.922360643067989e-05
-0.0005041743131300366
0.0006443372424293584
1.795621459616538
-0.0004994124542583761
-1.795737347907696
0.0006641477344851565
-9.738003127424122e-05
1.795517351989361
-0.0005059839182117258
0.0006581107251882224
-9.828034216570949e-05
-0.0004925593984466589
0.0006276582861725247
-9.529952378467288e-05
1.795615149125776
-3.537894661320706e-05
-0.0003872668750384508
-1.795703566287784
1.795532133764084
-3.648382593613988e-05
-0.0003986848369353654
-3.611710660862009e-05
-0.0003943729622213335
1.795614044246445
-6.897752582091215e-05
-0.0003786208490991624
-1.795701237273629
1.795532500483407
-0.0003900486527279128
-7.087532956078494e-05
-0.0003861506661518652
-7.003543228685359e-05
-0.0003615865613161719
-1.79569615031232
1.795612146442714
0.0004742422957675813
1.795536999368949
-2.673858459090282e-05
-1.795602264871356
-0.0003066747172309845
-2.683890483306798e-05
-0.0003076135589689305
1.795601148886451
-4.975569804282775e-05
-0.0002878762967668536
2.562259967931008e-05
-1.795667760341026
1.795536899048695
-5.19413557058326e-05
-0.0003005960450628748
-5.2159247882728e-05
-0.0003017566080800264
1.795598963228791
-0.0002761746737327542
-1.795663320304538
1.795536681156523
-0.0002888547503005583
0.0003732694596614294
-0.0002904580746266214
1.795479211598437
0.0003703088808000755
1.795586795670506
-3.655135480623234e-05
-0.0002184083048686105
1.879681547000762e-05
-1.795638509123783
1.795535589446406
-3.869224610814411e-05
-0.0002305768663184438
1.98792905017342e-05
-3.940975890576447e-05
-0.0002341181575846755
2.022980541914796e-05
1.795584654779216
-0.0002103016651002329
-1.795634790017854
1.795534871933611
-0.0002223135074455475
-0.000226037285655736
1.795573064424701
-2.740366189784186e-05
-0.0001641133067443547
1.405910372543835e-05
-1.795614014865205
1.795531593383192
-2.93677082670661e-05
-0.0001747915982146544
1.505348075280312e-05
-3.029114294444631e-05
-0.0001791147354690984
1.551334167336902e-05
1.795571100378336
-0.0001584872058096654
-1.795610933940797
1.795530669948509
-0.0001689819758919235
-0.000173356642875121
1.795561014829086
-2.105505813922977e-05
-0.0001206080838941546
1.077680139309452e-05
-1.79559424179568
1.79552671506946
-2.281201536365682e-05
-0.0001293472590461846
1.166743498259891e-05
-2.379359718147294e-05
-0.0001335083545477289
1.216049312556827e-05
1.795559257871869
-0.0001167413021769205
-1.79559167622671
1.795525733487647
-0.0001253129678921994
-0.0001294663199189472
1.795551153370713
-1.669170503662934e-05
-8.466610666155698e-05
8.525916699202923e-06
-1.795578929560083
1.795522019606853
-1.825964130891865e-05
-9.127496446601787e-05
9.321110059315026e-06
-1.923248523173445e-05
-9.4726423192526e-05
9.811793098890575e-06
1.795549585434447
-8.209298433312158e-05
-1.795576756109064
1.795521046762936
-8.856919990072604e-05
-9.199280733578524e-05
1.795543695804675
-1.378814283431747e-05
-5.383454466103643e-05
7.030946478084087e-06
-1.795567770170624
1.795518124912448
-1.520640297120435e-05
-5.824792142168175e-05
7.750251741648286e-06
-1.614781895042917e-05
-6.068108118246579e-05
8.22602654082538e-06
1.795542277544542
-5.226102580981974e-05
-1.795565876449071
1.795517183496475
-5.65840998256277e-05
-5.899019229005376e-05
1.7955387156629
-1.201255298672031e-05
-2.616256526484051e-05
6.11802218241109e-06
-1.795560493111718
1.79551537928678
-1.332891372152761e-05
-2.836819131384519e-05
6.785559374833383e-06
-1.423978642843881e-05
-2.961977672910621e-05
7.246324048148509e-06
1.795537399302177
-2.541581528594605e-05
-1.795558778457096
1.795514468414073
-2.75759775170599e-05
-2.881183567144769e-05
1.79553622679077
-1.116990552012268e-05
5.685139369726497e-06
-1.795556904590057
1.795513966973008
-1.243496397529957e-05
6.326590161298669e-06
-1.332808973586449e-05
6.778540732066204e-06
1.795534961732322
-1.795555277164436
1.79551307384725
-0.000293925272641026
-1.795669979696033
1.795535939961319
-1.795587878145536
-0.0002348534748300766
-0.0002382978641910967
-0.000222606841350581
-1.795640397317122
1.795574058801733
-0.0001670220666767568
-1.795615583335355
1.795532053244113
-0.0001777922950636552
-0.0001820860131083592
1.795561905462691
-0.0001226028066660945
-1.795595547764879
1.795527208127602
-0.0001314265604754894
-0.0001355897607822528
1.795551948564086
-8.599094181140997e-05
-1.795580035071797
1.795522510289896
-9.266705125416762e-05
-9.613172159461669e-05
1.795544415109937
-5.464357361124428e-05
-1.795568732588443
1.795518600687249
-5.910282698451397e-05
-6.154928864177123e-05
1.795539383200097
-2.654618385160745e-05
-1.795561363936685
1.795515840051454
-2.877492753938782e-05
-3.003432396653238e-05
1.795536868241562
-1.795557730805271
1.795514418923581
1.795133116520715
-1.707843560024203e-05
0.000182325763054258
-1.795131268934517
1.795135183302044
0.0002246470354061371
2.119611348339188e-05
-1.795135481404335
-4.142177749213009e-05
1.795135641413034
-1.339504338802559e-05
0.0001419752868097216
1.79513816915686
-1.006271614651392e-05
0.0001060315769070467
1.79513661804544
0.000179635889703551
-3.341482171167265e-05
1.795138809206609
0.0001399831451740316
-2.623350608094402e-05
7.34221242205988e-05
0.0001046040081549112
-1.972228628082931e-05
1.795982060843073
-3.362487124353455e-05
-0.000326122144575269
0.0004631991046533339
1.795862107743432
-4.235301976323311e-05
-0.0004192978919448365
0.0005816071062518802
-4.757354580859584e-05
-0.0004802821443021799
0.0006516621974388174
1.795973332694544
-0.0003158831934827581
-6.127640465668999e-05
0.0004461914257037565
1.795856887217383
-0.0004071209378590839
-8.05396554618037e-05
0.000561753048721414
-0.000467411390678009
0.000631547646223062
-9.21704938993922e-05
-3.30499324541737e-05
-1.795793291904985
-0.0003575026051549912
1.795870378216399
-0.0002295124871096732
2.207103599910287e-05
-4.16725349623448e-05
1.795788854276083
-0.0002993209842863109
2.861230355160773e-05
-5.488831828747696e-05
-0.000348953758632776
-6.389056450657067e-05
1.795791604925299
-0.000168715671491693
1.508320530595589e-05
-2.896890884329548e-05
1.795732847670305
-0.0002220665781667249
1.988374697171602e-05
-3.838089925339013e-05
-0.0002619540141139964
2.340324468264043e-05
-4.531566155379367e-05
1.795731402705357
-0.0001245383834996522
1.061306632220305e-05
-2.053802670516092e-05
1.795687837897432
-0.0001652026726013389
1.416620907491103e-05
-2.746530748070339e-05
-0.0001967016152438096
1.69086221374404e-05
-3.283224887573042e-05
1.795685516315963
-9.152090660080604e-05
7.657786154460712e-06
-1.488086886841935e-05
1.795652293866542
-0.0001222036011370164
1.034168764258439e-05
-2.01183103740724e-05
-0.0001465905112745044
1.249063357278195e-05
-2.432273748625141e-05
1.795650893355635
-6.608133040767184e-05
5.676001598170705e-06
-1.106210336255222e-05
1.795624775194074
-8.871040590674827e-05
7.757248801193735e-06
-1.513228318056004e-05
-0.0001070384571861354
9.470832191319012e-06
-1.848948917232699e-05
1.79562535825859
-4.576734733009501e-05
4.349504308107295e-06
-8.496512997169402e-06
1.795604093457889
-6.169814007468239e-05
6.017071029260324e-06
-1.176453678003665e-05
-7.477671147273925e-05
7.420404986744546e-06
-1.451825400938998e-05
1.795607381636479
-2.882521719982378e-05
3.484360795108698e-06
-6.819093293586424e-06
1.795589335338889
-3.89759163599521e-05
4.876841267434344e-06
-9.552767893500322e-06
-4.738565140380758e-05
6.068528662694743e-06
-1.189442127492182e-05
1.795595927386451
-1.392922698019204e-05
2.962777876031074e-06
-5.806112100775728e-06
1.795579845627259
-1.886857877053672e-05
4.187094468017295e-06
-8.212673192725704e-06
-2.298243528888832e-05
5.24719721818246e-06
-1.029789835675674e-05
1.795590353724044
2.717344435962427e-06
-5.328980017599255e-06
1.795575203470065
3.861866709854027e-06
-7.580191608075239e-06
4.858924163585913e-06
-9.542479886545682e-06
1.795876919483952
-0.0002357050677724963
-0.0003070561875375688
-1.795736367168022
-0.0002677095161754081
1.795796405466966
-0.0001726770863333834
-0.0002271334316930051
1.795734955848104
-0.0001271573380314805
1.795690580310506
-0.0001685919443886091
-0.0002006168146533085
1.795688200217462
-9.327715417891833e-05
1.795654442812467
-0.0001244939179347844
-0.0001492666441766497
1.795652974602838
-6.725686568158403e-05
1.795626488777472
-9.025254274648519e-05
-0.000108855535537721
1.795627025825311
-4.653403318499728e-05
1.795605496791854
-6.270860599981495e-05
-7.597473752443565e-05
1.795608774116936
-2.928744138586126e-05
1.795590527026292