/*--------------------------------*- C++ -*----------------------------------*\
  =========                 |
  \\      /  F ield         | OpenFOAM: The Open Source CFD Toolbox
   \\    /   O peration     | Website:  https://openfoam.org
    \\  /    A nd           | Version:  7
     \\/     M anipulation  |
\*---------------------------------------------------------------------------*/
FoamFile
{
    version     2.0;
    format      ascii;
    class       volVectorField;
    location    "0";
    object      U;
}
// * * * * * * * * * * * * * * * * * * * * * * * * * * * * * * * * * * * * * //

dimensions      [0 1 -1 0 0 0 0];

internalField   nonuniform List<vector> 
12693
(
(0.9999997443315048 -9.26922232251622e-06 -0.0002229901472717145)
(0.9999854358713687 -8.030614175164828e-06 -0.0001919932158881496)
(0.9999758000448767 -6.866460678653771e-06 -0.000163168130740393)
(0.99996960226962 -5.791965996584964e-06 -0.0001368347489906074)
(0.9999658437260142 -4.80961756522646e-06 -0.000113004432896319)
(0.9999637462417207 -3.913991887284025e-06 -9.149908473688825e-05)
(0.9999627215516205 -3.0950256491248e-06 -7.203188820004462e-05)
(0.9999623371926935 -2.340138767042031e-06 -5.425904504055689e-05)
(0.9999622853001966 -1.635533274549221e-06 -3.781086106701069e-05)
(0.9999623570447785 -9.669264476748067e-07 -2.230879627952692e-05)
(0.9999624235872117 -3.199114188061831e-07 -7.373390701476462e-06)
(1.000002200510691 -2.730646977167665e-05 -0.0002188031365617858)
(0.9999877805055331 -2.368473198297531e-05 -0.0001886306116472049)
(0.9999779842434822 -2.02715673633489e-05 -0.0001604932027656251)
(0.9999716087707186 -1.711420855976925e-05 -0.0001347258384318529)
(0.9999676754672244 -1.422210125859555e-05 -0.0001113585238106241)
(0.9999654184160562 -1.158096348944142e-05 -9.023202282533773e-05)
(0.9999642563184448 -9.162459374798154e-06 -7.107700616276825e-05)
(0.9999637603335385 -6.93051847773085e-06 -5.356522306428524e-05)
(0.9999636242392517 -4.845230912325461e-06 -3.734058498815739e-05)
(0.9999636397872383 -2.865070093545653e-06 -2.203650512964823e-05)
(0.9999636782442448 -9.480139747745416e-07 -7.284247626278887e-06)
(1.000027892084911 -7.316027709147351e-06 -0.0001874806121900061)
(1.000012584991991 -6.4405816328437e-06 -0.000163815030676576)
(1.000001287042733 -5.58644468505306e-06 -0.0001410470194589219)
(0.9999931389151704 -4.772303840633664e-06 -0.0001196355731977957)
(0.9999873963201125 -4.006724647156984e-06 -9.976832549518315e-05)
(0.9999834450615279 -3.291266576530596e-06 -8.144670613966045e-05)
(0.9999807970518352 -2.622835001267692e-06 -6.455003317502548e-05)
(0.9999790774502757 -1.995368849725211e-06 -4.88810827842832e-05)
(0.9999780091770446 -1.400997951650587e-06 -3.419693069436987e-05)
(0.9999773983543433 -8.308028158472467e-07 -2.022885053517667e-05)
(0.9999771225259277 -2.752935679784306e-07 -6.694551951728495e-06)
(1.000029589320317 -2.158419677429567e-05 -0.0001842118042162241)
(1.000014272566187 -1.901932776607949e-05 -0.0001611295629253262)
(1.000002914685306 -1.651071611294932e-05 -0.0001388671412958056)
(0.999994679988676 -1.411470517335288e-05 -0.0001178861238219121)
(0.9999888409551703 -1.185775054718593e-05 -9.838173105846732e-05)
(0.9999847947891247 -9.745475716817825e-06 -8.036515623822751e-05)
(0.9999820608414905 -7.769587297833947e-06 -6.372602739089639e-05)
(0.9999802689250349 -5.912869592777799e-06 -4.827713016891789e-05)
(0.9999791447407708 -4.152626556217704e-06 -3.378489588372972e-05)
(0.9999784959838851 -2.462954729647855e-06 -1.9989244630065e-05)
(0.9999782010167678 -8.161894395235055e-07 -6.615939211148434e-06)
(1.000048830358431 -5.798473321482476e-06 -0.0001555946085635572)
(1.000033527806698 -5.178822958611702e-06 -0.0001377053128190626)
(1.000021557340123 -4.551236146989106e-06 -0.0001199309547979998)
(1.000012355202654 -3.933662249163447e-06 -0.0001027541336415411)
(1.000005396481182 -3.336600001302365e-06 -8.643879350648349e-05)
(1.000000222330196 -2.76494599576921e-06 -7.108606822233268e-05)
(0.9999964502329535 -2.2195496511995e-06 -5.66808512487008e-05)
(0.9999937743345486 -1.698437558916661e-06 -4.312808698375802e-05)
(0.999991960826455 -1.197734668180717e-06 -3.027970276822544e-05)
(0.9999908416513333 -7.123347120547811e-07 -1.795389222394644e-05)
(0.9999903085397844 -2.363813794993711e-07 -5.94864707625594e-06)
(1.000050004913617 -1.71290440326823e-05 -0.0001530636071909689)
(1.000034744620703 -1.531044514671061e-05 -0.0001355841828996524)
(1.000022772091126 -1.346433480696366e-05 -0.0001181780031705567)
(1.000013540088465 -1.164430530447577e-05 -0.0001013247211690515)
(1.000006536469364 -9.882013399093629e-06 -8.528997842110964e-05)
(1.000001311823426 -8.192530729053415e-06 -7.017924714409408e-05)
(0.9999974903454457 -6.578896110909773e-06 -5.598307788550337e-05)
(0.9999947707911713 -5.035725692541578e-06 -4.26125803748142e-05)
(0.9999929224064169 -3.551940731240412e-06 -2.99259075502263e-05)
(0.9999917790637918 -2.112762399773018e-06 -1.774733460409189e-05)
(0.999991233613223 -7.01149255331077e-07 -5.880742358718109e-06)
(1.000064278754091 -4.628769545161868e-06 -0.0001272597204969269)
(1.000049522347676 -4.188282460171619e-06 -0.0001138667984962737)
(1.00003748647831 -3.724890177658745e-06 -0.0001001525650351067)
(1.00002782722508 -3.254174545072057e-06 -8.656186967496559e-05)
(1.000020195387868 -2.786495987111218e-06 -7.337313835970994e-05)
(1.000014265787439 -2.328001971679397e-06 -6.073233579449716e-05)
(1.000009753532405 -1.881585873109155e-06 -4.868459476662109e-05)
(1.000006421496916 -1.44771844179414e-06 -3.720116232166326e-05)
(1.000004082450189 -1.025130475323057e-06 -2.62010938547895e-05)
(1.00000259837631 -6.113542547774976e-07 -1.556811568440973e-05)
(1.000001878727343 -2.031503314538453e-07 -5.16355713312523e-06)
(1.000065094587649 -1.368918554208106e-05 -0.0001253171748687225)
(1.000050404084637 -1.239440237946894e-05 -0.0001122106495142172)
(1.00003839769924 -1.102936226584732e-05 -9.876232219375692e-05)
(1.000028742585737 -9.640393253340059e-06 -8.541224541866124e-05)
(1.000021098767554 -8.25847307932328e-06 -7.243775171720909e-05)
(1.00001514836468 -6.902135807252709e-06 -5.998613151409036e-05)
(1.000010612032074 -5.580270708034543e-06 -4.810531192646349e-05)
(1.000007256708597 -4.294567039182909e-06 -3.677014922029446e-05)
(1.000004898031033 -3.041529206723625e-06 -2.590370587747422e-05)
(1.000003399904976 -1.81408358725108e-06 -1.539387122913503e-05)
(1.000002672953625 -6.028476401857604e-07 -5.106173004164892e-06)
(1.000075574761859 -3.736016330652776e-06 -0.0001021516814414993)
(1.000061603074855 -3.420331881433072e-06 -9.224262475668819e-05)
(1.000049837444974 -3.074966452189111e-06 -8.181101200052318e-05)
(1.000040091037425 -2.712798601009699e-06 -7.123604667608103e-05)
(1.000032148498415 -2.343170975651538e-06 -6.0775444603589e-05)
(1.000025792607489 -1.97238296217436e-06 -5.058457045057337e-05)
(1.000020821805479 -1.604242305204517e-06 -4.073672747333525e-05)
(1.000017060817636 -1.240599515532006e-06 -3.124211053017132e-05)
(1.000014366481901 -8.818274719627959e-07 -2.206428363118797e-05)
(1.000012630528652 -5.272354644993413e-07 -1.313392873637583e-05)
(1.000011780629488 -1.754217589648862e-07 -4.360143546873406e-06)
(1.000076145294645 -1.106002820486535e-05 -0.000100678548876848)
(1.000062247860973 -1.013079468261023e-05 -9.096829862311459e-05)
(1.000050527581081 -9.11212258654331e-06 -8.072692139221983e-05)
(1.000040804822172 -8.04222729925872e-06 -7.032874582779358e-05)
(1.000032870658766 -6.948936890950971e-06 -6.002934113227644e-05)
(1.000026513278923 -5.851102797168519e-06 -4.998388350168447e-05)
(1.000021535469964 -4.76020447466538e-06 -4.026681265218306e-05)
(1.000017765311722 -3.681916684850207e-06 -3.089030561957278e-05)
(1.000015062122907 -2.617523799547882e-06 -2.182041573966637e-05)
(1.000013319365696 -1.565144951568582e-06 -1.299059761799155e-05)
(1.000012465801896 -5.207806835329692e-07 -4.312866573169995e-06)
(1.00007725137178 -1.794021253513126e-05 -9.781330907796184e-05)
(1.000083730744495 -3.064693504622412e-06 -7.981906021406013e-05)
(1.000070589469597 -2.835231107820582e-06 -7.261764140393418e-05)
(1.000059243291324 -2.573760618146965e-06 -6.484704093342345e-05)
(1.000049614062741 -2.290704186129421e-06 -5.681171166095642e-05)
(1.000041584416816 -1.994150048756674e-06 -4.873056239452518e-05)
(1.000035020173038 -1.690045940010761e-06 -4.074680607795823e-05)
(1.000029786794465 -1.382488710614085e-06 -3.294029915373957e-05)
(1.000025760813752 -1.074049540364038e-06 -2.53402664377435e-05)
(1.000022837352761 -7.660980250985736e-07 -1.7937217258174e-05)
(1.000020934807112 -4.59106928031826e-07 -1.069353624431459e-05)
(1.000019997587922 -1.529318317837327e-07 -3.552693233760645e-06)
(1.000084134622219 -9.080658126126866e-06 -7.872321858776915e-05)
(1.000071068270247 -8.404363971230619e-06 -7.165824242034892e-05)
(1.000059774378922 -7.632235409889781e-06 -6.402176970385884e-05)
(1.000050179365292 -6.795171608432488e-06 -5.611405841987614e-05)
(1.000042170232106 -5.91721920288633e-06 -4.815173086950125e-05)
(1.000035616697749 -5.016115866110904e-06 -4.027718394395717e-05)
(1.000030387523452 -4.104129169547625e-06 -3.25705292585237e-05)
(1.000026361905399 -3.189007936951638e-06 -2.506198875917219e-05)
(1.00002343701432 -2.274936389934655e-06 -1.774355829161873e-05)
(1.000021532723756 -1.363434875069438e-06 -1.057941533211254e-05)
(1.00002059439868 -4.541885771618447e-07 -3.515001461626632e-06)
(1.000084919284264 -1.475673699402025e-05 -7.658832018113432e-05)
(1.000072001681744 -1.366930076289529e-05 -6.978710375942283e-05)
(1.000060812253878 -1.242314901145187e-05 -6.241056623399114e-05)
(1.000089494236899 -2.572511653365131e-06 -5.975700390374148e-05)
(1.000077109809109 -2.401667085757191e-06 -5.468633297431488e-05)
(1.000066207872207 -2.198677936819087e-06 -4.909869439530562e-05)
(1.000056783104482 -1.97197915177605e-06 -4.322406836609261e-05)
(1.000048787150625 -1.728491492878165e-06 -3.723458009944963e-05)
(1.000042146808702 -1.473649835871572e-06 -3.124897766983796e-05)
(1.000036778578677 -1.211532196026039e-06 -2.533973190406001e-05)
(1.000032599723885 -9.450457267324678e-07 -1.954118720811024e-05)
(1.000029536309601 -6.761392355775862e-07 -1.385775659018968e-05)
(1.000027528785677 -4.060232453292072e-07 -8.271621364647609e-06)
(1.000026535652879 -1.353874541520475e-07 -2.749745520607386e-06)
(1.000089786482575 -7.628106558800561e-06 -5.896926485243654e-05)
(1.000077474361602 -7.123996452176828e-06 -5.399005799228025e-05)
(1.000066626914511 -6.523926019959697e-06 -4.849443821815448e-05)
(1.000057241648107 -5.852895770938116e-06 -4.270913012940477e-05)
(1.000049273135901 -5.131462713793955e-06 -3.68042782696353e-05)
(1.00004265095202 -4.375806858295395e-06 -3.089768803886927e-05)
(1.000037294064977 -3.598100888339131e-06 -2.506168563625539e-05)
(1.000033121817366 -2.807052502888371e-06 -1.933105485122146e-05)
(1.0000300619311 -2.008529370972335e-06 -1.371105595701534e-05)
(1.00002805608527 -1.206208544868153e-06 -8.184988361440503e-06)
(1.000027063590712 -4.022209262724094e-07 -2.721101911450848e-06)
(1.000090355375169 -1.241617011492161e-05 -5.743262008396366e-05)
(1.000078186385134 -1.160350110380171e-05 -5.26305589107758e-05)
(1.000067447195372 -1.063275741756258e-05 -4.731356558438031e-05)
(1.000058140756206 -9.544503906888816e-06 -4.170198525320022e-05)
(1.000050227312316 -8.37223635921129e-06 -3.596204719604458e-05)
(1.000093401038475 -2.228306727406531e-06 -4.144727600348039e-05)
(1.000081628433017 -2.095943210839463e-06 -3.809563465094993e-05)
(1.000071114922524 -1.932155508967266e-06 -3.434035115986318e-05)
(1.000061901895403 -1.743915226169495e-06 -3.034093311234308e-05)
(1.000053987189321 -1.537211689582998e-06 -2.622015920562618e-05)
(1.000047339837241 -1.316993634538446e-06 -2.206576286511359e-05)
(1.000041912720301 -1.087204636927109e-06 -1.79342493076785e-05)
(1.000037652859614 -8.508815431323577e-07 -1.38557947930547e-05)
(1.000034509403099 -6.102922449354165e-07 -9.839498571051702e-06)
(1.000032439532862 -3.670951032752854e-07 -5.878550453209457e-06)
(1.000031412575056 -1.225095000050377e-07 -1.955112811294576e-06)
(1.000093620910903 -6.611532455031365e-06 -4.091773746828785e-05)
(1.000081917197832 -6.220574673686813e-06 -3.762422702570691e-05)
(1.000071458197066 -5.735944731613965e-06 -3.392852198012517e-05)
(1.000062287030954 -5.178306763961781e-06 -2.998785262288187e-05)
(1.000054403511414 -4.565444323187367e-06 -2.592351953152509e-05)
(1.000047778668689 -3.912077115356765e-06 -2.182245636733858e-05)
(1.000042367250682 -3.229957437546814e-06 -1.774091093979372e-05)
(1.00003811791471 -2.52815610816275e-06 -1.370921440881938e-05)
(1.000034981154613 -1.813466252900441e-06 -9.736919647998318e-06)
(1.00003291517616 -1.090874440710008e-06 -5.817875668920727e-06)
(1.00003188999218 -3.640643959393272e-07 -1.935035624292974e-06)
(1.0000940496701 -1.077573827132809e-05 -3.988376915896345e-05)
(1.000082482131047 -1.014402644131001e-05 -3.670300948422112e-05)
(1.000072131133736 -9.358417132829806e-06 -3.312310555375194e-05)
(1.000063043133301 -8.45245720565973e-06 -2.929683149205794e-05)
(1.000055221763229 -7.455114165850036e-06 -2.534257731335296e-05)
(1.000048641936954 -6.390451168683752e-06 -2.134568374005772e-05)
(1.000043262043282 -5.277758793033073e-06 -1.736186335749757e-05)
(1.000039033938518 -4.131999338984798e-06 -1.342171925317255e-05)
(1.000095817469842 -2.010266020807276e-06 -2.437695043155953e-05)
(1.000084470552697 -1.901136141053689e-06 -2.247011682362424e-05)
(1.000074239527373 -1.761395080273564e-06 -2.030881155860962e-05)
(1.000065193303291 -1.597063248418929e-06 -1.798656050023037e-05)
(1.000057357862667 -1.413494543630384e-06 -1.55766612936353e-05)
(1.000050728643955 -1.215276111318233e-06 -1.313264249912136e-05)
(1.000045281759896 -1.006213114691371e-06 -1.069007923259176e-05)
(1.000040983572862 -7.893768610835915e-07 -8.269170822693455e-06)
(1.000037798455524 -5.671971511777561e-07 -5.877646529996483e-06)
(1.000035694756643 -3.415834862142792e-07 -3.513722614155348e-06)
(1.000034649089829 -1.14064242746968e-07 -1.168967439897527e-06)
(1.000095994062613 -5.967238480445528e-06 -2.407206353045448e-05)
(1.000084713191929 -5.644651036090778e-06 -2.219740630074246e-05)
(1.000074536016571 -5.230881236449657e-06 -2.006951160107323e-05)
(1.000065532543501 -4.743776834577854e-06 -1.778056860389092e-05)
(1.000057730153451 -4.199232863903954e-06 -1.540297392991848e-05)
(1.000051125796632 -3.610887640559662e-06 -1.298973576009877e-05)
(1.000045697065577 -2.990071857295867e-06 -1.057622111171159e-05)
(1.000041411665491 -2.345946618471229e-06 -8.182664478308694e-06)
(1.000038235103366 -1.685773822845193e-06 -5.817010643422952e-06)
(1.000036136608009 -1.015273718613665e-06 -3.477818144880496e-06)
(1.000035093391697 -3.390363569606224e-07 -1.157080284561607e-06)
(1.000096338912795 -9.734975997052197e-06 -2.347636493281443e-05)
(1.00008518850101 -9.212778216695557e-06 -2.166417916008972e-05)
(1.00007511787972 -8.540967224365123e-06 -1.96012801577117e-05)
(1.000066199160455 -7.748536318379762e-06 -1.737724313316096e-05)
(1.000058462429631 -6.861378880235419e-06 -1.506269370616031e-05)
(1.000051907575936 -5.901777020204898e-06 -1.270960843672054e-05)
(1.000046515077392 -4.888302434376754e-06 -1.0352931492113e-05)
(1.000042255263446 -3.836026227000378e-06 -8.012950127012917e-06)
(1.000039095861602 -2.756947473601315e-06 -5.698015974181933e-06)
(1.000037007825672 -1.660566987748726e-06 -3.407343475703134e-06)
(1.000096971204252 -1.90458643918155e-06 -8.04409174066516e-06)
(1.000085841862562 -1.806383852842979e-06 -7.42544529095047e-06)
(1.000075758605858 -1.678065475953365e-06 -6.720068421466704e-06)
(1.000066803051034 -1.52518537583334e-06 -5.958748821294928e-06)
(1.000059014461537 -1.35277756464508e-06 -5.165829221310557e-06)
(1.000052400940089 -1.165239090722359e-06 -4.359274050454052e-06)
(1.000046949887394 -9.662929449931993e-07 -3.551198470158172e-06)
(1.000042637164912 -7.590132167151576e-07 -2.748668189722643e-06)
(1.000039434688743 -5.458962794788186e-07 -1.954626835259511e-06)
(1.000037316379063 -3.289634912631727e-07 -1.168856806093067e-06)
(1.000036262504038 -1.098848822752631e-07 -3.889224298970836e-07)
(1.000097127564849 -5.654866541383417e-06 -7.944560686235798e-06)
(1.000086062698043 -5.364450416280747e-06 -7.336206592468435e-06)
(1.000076032778966 -4.98435460036728e-06 -6.641589264709196e-06)
(1.000067120230685 -4.531046557621143e-06 -5.89105669350513e-06)
(1.000059365445431 -4.019471428523376e-06 -5.108649915154264e-06)
(1.000052777805537 -3.462700272183441e-06 -4.312154093025604e-06)
(1.00004734600308 -2.871815149065166e-06 -3.513606835225084e-06)
(1.00004304709698 -2.25598027748453e-06 -2.720076503519187e-06)
(1.000039854031173 -1.622649911586446e-06 -1.934569534567397e-06)
(1.000037741532603 -9.778709602693631e-07 -1.156973793436925e-06)
(1.000036690422693 -3.266490339575217e-07 -3.849871679517345e-07)
(1.000097433158401 -9.230072810757437e-06 -7.750031258797632e-06)
(1.000086495611706 -8.759456458242808e-06 -7.161670223521083e-06)
(1.00007657117462 -8.141770508279823e-06 -6.487993345136371e-06)
(1.000067743812126 -7.403777281704764e-06 -5.758488939785962e-06)
(1.000060056099165 -6.569826173798708e-06 -4.996605524454974e-06)
(1.000053519904961 -5.661268071401276e-06 -4.219773528038389e-06)
(1.000048126439389 -4.69625652304171e-06 -3.439874051761904e-06)
(1.000043855101019 -3.689851204913745e-06 -2.663975737707522e-06)
(1.000040680845327 -2.654346523337249e-06 -1.895203291220006e-06)
(1.000038579979918 -1.599757444607154e-06 -1.13364662336954e-06)
(1.000037534411032 -5.344091143286883e-07 -3.772612603564515e-07)
(1.000098677416761 -3.249383471672341e-06 -8.605713454525621e-05)
(1.000103302075766 -2.701391765315284e-06 -6.402316854030096e-05)
(1.000106331735686 -2.321478973606626e-06 -4.42008250786476e-05)
(1.000108155787229 -2.082305229474634e-06 -2.591717343634257e-05)
(1.000109011662312 -1.966812297854242e-06 -8.539395755260049e-06)
(1.000020173756999 -1.05475630111542e-05 -0.0002553654452717666)
(1.000022644970801 -3.103238302160664e-05 -0.0002502121010417085)
(1.00004813335797 -8.180090330204714e-06 -0.0002112084359839944)
(1.000049758205206 -2.410809017562158e-05 -0.0002072855381630511)
(1.000068014430602 -6.382800889343357e-06 -0.0001728372692683082)
(1.000069082251538 -1.883899376291302e-05 -0.0001698651306680787)
(1.000082047519932 -5.024657856685976e-06 -0.0001396889811159857)
(1.000082748639125 -1.484953690934681e-05 -0.0001374496380931771)
(1.000091873291427 -4.005302067815984e-06 -0.0001110238568694151)
(1.000092333257951 -1.18503946013337e-05 -0.0001093517802773582)
(1.000093220308306 -1.920057506754651e-05 -0.0001061040600567787)
(1.000098979453931 -9.623379119927755e-06 -8.482904456246647e-05)
(1.000099562908429 -1.562453523637175e-05 -8.243924496284736e-05)
(1.000103501840568 -8.007215189249232e-06 -6.314923327396442e-05)
(1.000103888238427 -1.302383312947245e-05 -6.144610385416747e-05)
(1.000106467124114 -6.885837878366657e-06 -4.361775257759712e-05)
(1.000106729250018 -1.121636960896951e-05 -4.248021822818613e-05)
(1.000108253567046 -6.17946432259854e-06 -2.558314114464147e-05)
(1.000108442991694 -1.007649185842427e-05 -2.493099545179825e-05)
(1.000109092125049 -5.838249542868817e-06 -8.430622544308888e-06)
(1.000109248044863 -9.525488225502875e-06 -8.218183221503634e-06)
(0.9999478330942763 -1.095978727980927e-06 -7.851464069671485e-06)
(1.000115109642388 -3.372922991564306e-06 -9.079379086365718e-05)
(1.000118183618469 -2.776502815835795e-06 -6.710832814355505e-05)
(1.000120059318412 -2.366674884668631e-06 -4.610945819150645e-05)
(1.000121121207076 -2.110293242339147e-06 -2.695137463707587e-05)
(1.000121598648775 -1.986958182614337e-06 -8.866315662080728e-06)
(1.000102698916116 -5.343631883789195e-06 -0.0001501632759712546)
(1.000110552416377 -1.243419411091336e-05 -0.0001162622066620886)
(1.000115281672535 -9.984286263536025e-06 -8.944820725331044e-05)
(1.000115609282805 -1.619531166768251e-05 -8.68327763196947e-05)
(1.000118271029138 -8.226522981999247e-06 -6.616062068428683e-05)
(1.000118436312298 -1.337055842073984e-05 -6.43155246631363e-05)
(1.000120095738117 -7.017571941007748e-06 -4.548201307634009e-05)
(1.000120163037661 -1.142418384088159e-05 -4.425894642389955e-05)
(1.000121128907579 -6.260777879271538e-06 -2.659375461619577e-05)
(1.000121140948476 -1.020418032648265e-05 -2.589608841723551e-05)
(1.000121593448745 -5.896571925647274e-06 -8.750158140727178e-06)
(1.000121580647215 -9.616598173245992e-06 -8.523459714226818e-06)
(1.000110243458084 -4.205183491138041e-06 -0.0001181183300916658)
(0.9999463802608374 -3.700261067132044e-07 -7.950441544039394e-06)
(0.9999473662059031 -3.317427453018154e-06 -2.378498789909486e-05)
(0.999945873831465 -1.120166633794895e-06 -2.408801895845858e-05)
(0.9999464899971954 -5.627857504926846e-06 -4.041454513740781e-05)
(1.000083945759117 -1.288615734839339e-05 -0.0003163428191435088)
(1.000047836317421 -1.178621501399745e-05 -0.0002872360996452375)
(1.000085863436438 -3.782345708473602e-05 -0.0003089860587162193)
(1.0000501601143 -3.463023985005469e-05 -0.0002810044398640999)
(1.000105365300901 -9.624063991248245e-06 -0.0002522890590582744)
(1.000073792662457 -8.971589017227851e-06 -0.000233390817749947)
(1.00010644908215 -2.830567277169025e-05 -0.0002469960584810591)
(1.000075226904862 -2.641188615474634e-05 -0.0002287757711451007)
(1.000118418124344 -7.266817567868481e-06 -0.0002002427939970926)
(1.00009117679982 -6.886848601044818e-06 -0.0001881455410725192)
(1.000119003766165 -2.141028243243585e-05 -0.0001964120983630341)
(1.000092054483147 -2.030837106344774e-05 -0.0001847282985744885)
(1.000126125029304 -5.556956340408617e-06 -0.0001577705247340615)
(1.000126414003211 -1.639817288077986e-05 -0.0001549921695223011)
(1.000103227123309 -1.578047023998316e-05 -0.0001476374626339411)
(1.000126955047801 -2.643029783626264e-05 -0.000149624037589089)
(1.000104235768122 -2.547160563472886e-05 -0.0001427506887013035)
(1.000130588222421 -1.275650487862634e-05 -0.0001207871572670821)
(1.000130796839843 -2.062022425591284e-05 -0.0001168938623792868)
(1.000111142178494 -2.012294679113055e-05 -0.0001126619224179043)
(1.000132783429067 -1.012758798260343e-05 -9.215365733213519e-05)
(1.000132799622564 -1.641216389910922e-05 -8.936140593244024e-05)
(1.000133821596241 -8.262685066890667e-06 -6.771921383848291e-05)
(1.00013372851275 -1.341917125151795e-05 -6.576923624253427e-05)
(1.000134232857022 -6.991224647335571e-06 -4.633169845150877e-05)
(1.000134079581848 -1.137445529198697e-05 -4.504882231246156e-05)
(1.000134349054735 -6.200235008372402e-06 -2.700584751841802e-05)
(1.000134164660104 -1.010058240336306e-05 -2.627772012136942e-05)
(1.000134362959238 -5.820986240244586e-06 -8.871976739590967e-06)
(1.000134165458957 -9.489283907308172e-06 -8.635970777795301e-06)
(1.000130473816752 -4.316888958153916e-06 -0.0001227968612667622)
(1.000132770170149 -3.423097711940029e-06 -9.359179492787868e-05)
(1.000133865780497 -2.789885094581317e-06 -6.872174379537744e-05)
(1.000134308682233 -2.358609156000119e-06 -4.699037012755309e-05)
(1.000134441242758 -2.090501925248232e-06 -2.737935834635267e-05)
(1.000134462040965 -1.962010739717194e-06 -8.992987720210053e-06)
(1.000246570264328 -1.351429995328524e-05 -0.0003508290152252182)
(1.000184741983939 -1.399446619956073e-05 -0.0003531170035287052)
(1.000129653363173 -1.370441129909755e-05 -0.0003397963182128376)
(1.00024582172426 -4.063891945852052e-05 -0.0003442485765492907)
(1.000184549651516 -4.13709757083515e-05 -0.0003444066992307555)
(1.000130759962336 -4.025180019277565e-05 -0.0003314253504810981)
(1.000234655486534 -9.851724187937243e-06 -0.0002657800066394386)
(1.000186909027678 -1.015868739732998e-05 -0.0002712657280356947)
(1.000143269187276 -1.005585509823779e-05 -0.0002658423891551593)
(1.000233699097103 -2.906480001480782e-05 -0.000259773166675878)
(1.000186703439351 -2.990109105334949e-05 -0.0002650983937691247)
(1.000143802675737 -2.956503072685593e-05 -0.0002599733918889543)
(1.000231753738138 -4.640245733366621e-05 -0.0002472866441096689)
(1.000184675716796 -7.44540552332712e-06 -0.000208686258629098)
(1.000149811729487 -7.472886286361856e-06 -0.0002076883198787757)
(1.000220783737099 -2.099395559917469e-05 -0.0001971885046961376)
(1.000184336958067 -2.19135112232287e-05 -0.0002043327508256775)
(1.000149989549272 -2.200213802412253e-05 -0.0002035228621946845)
(1.000218938384616 -3.357944843733927e-05 -0.0001886867559336847)
(1.000183667534371 -3.50971135402489e-05 -0.0001958947366751443)
(1.000150314958278 -3.528772745245433e-05 -0.0001954931820748041)
(1.000208639266311 -1.541527288877868e-05 -0.0001497883436791314)
(1.00017997463468 -1.631302743759367e-05 -0.0001571517489293846)
(1.000152216555642 -1.661048873732327e-05 -0.0001585428300769475)
(1.000207007171591 -2.474337014785468e-05 -0.0001439279108959666)
(1.000179178527438 -2.622016874576001e-05 -0.0001512332123522855)
(1.000152153289978 -2.673452690889532e-05 -0.0001528092781866297)
(1.000197992905679 -1.15479851207131e-05 -0.0001131720744417057)
(1.000175037320501 -1.237194919600285e-05 -0.000119931498381207)
(1.000152283607981 -1.275721720120564e-05 -0.0001222582523827733)
(1.000196587807716 -1.860149420217587e-05 -0.0001091091334011951)
(1.000174233114903 -1.995181590855665e-05 -0.000115767894481275)
(1.000152024338064 -2.059706602071321e-05 -0.0001181638841779935)
(1.000189129829176 -8.865637270446776e-06 -8.423709782204417e-05)
(1.000170322650787 -9.603029936773525e-06 -8.998191043083449e-05)
(1.000151307613967 -1.001373867985067e-05 -9.249203846788356e-05)
(1.000187925942572 -1.432614056637722e-05 -8.142855265396967e-05)
(1.000169559927713 -1.553238419804095e-05 -8.70695099966693e-05)
(1.000150957206863 -1.621213266026255e-05 -8.959259254125691e-05)
(1.000182118588156 -7.02347554993845e-06 -6.07320090422014e-05)
(1.00016626833593 -7.681641627415737e-06 -6.527284719090943e-05)
(1.000149976624091 -8.089255237972486e-06 -6.752508217167302e-05)
(1.000181076557211 -1.138039984216214e-05 -5.882671198521947e-05)
(1.000165560691581 -1.24563923202789e-05 -6.32787478656795e-05)
(1.000149589723333 -1.312744377840521e-05 -6.552045185051239e-05)
(1.000176933494446 -5.798420100612663e-06 -4.097652406198885e-05)
(1.000163106565777 -6.393763248596105e-06 -4.423754020141156e-05)
(1.000148708909468 -6.7884715559197e-06 -4.597855159023422e-05)
(1.000176011059227 -9.416394621224626e-06 -3.974970714493195e-05)
(1.000162449361554 -1.038966891113948e-05 -4.294476323059912e-05)
(1.000148311633128 -1.103784640921003e-05 -4.466952651652029e-05)
(1.000173519685241 -5.049629689186204e-06 -2.366778400173875e-05)
(1.000160954826836 -5.602174204215133e-06 -2.562606885666484e-05)
(1.000147752060385 -5.984195225574718e-06 -2.671623015135265e-05)
(1.000172675503245 -8.213718924909534e-06 -2.298131393365845e-05)
(1.00016033450983 -9.11719246544134e-06 -2.489943116647564e-05)
(1.000147354642256 -9.743808727861913e-06 -2.597693134955657e-05)
(1.000171827042408 -4.694375897874182e-06 -7.740403924509023e-06)
(1.000159868289648 -5.225366536376704e-06 -8.392956010013399e-06)
(1.000147243210525 -5.59998991812393e-06 -8.763247552989998e-06)
(1.000171021443393 -7.642494601340731e-06 -7.519471978090523e-06)
(1.000159267203859 -8.51085463249591e-06 -8.158573229899385e-06)
(1.000146847516657 -9.125059686397633e-06 -8.524211737114678e-06)
(1.000221712677922 -7.135103513103828e-06 -0.0002015361383646587)
(1.000180373743286 -5.535622744133784e-06 -0.0001602154414334006)
(1.000152238435422 -5.63292530622732e-06 -0.0001615122553748387)
(1.000209466640789 -5.234506112016227e-06 -0.0001528201520712561)
(1.000198706696008 -3.915348364994238e-06 -0.0001152748248642591)
(1.000175442346987 -4.192017255408844e-06 -0.0001220845473003712)
(1.000152408893747 -4.319855879528347e-06 -0.0001243739281978382)
(1.0001897416151 -3.001452515292715e-06 -8.568783235132261e-05)
(1.000170708029122 -3.249282031623992e-06 -9.148486849997235e-05)
(1.000151481764908 -3.386415053708874e-06 -9.398691535498501e-05)
(1.000182647962249 -2.374747875291118e-06 -6.171412676849243e-05)
(1.000166626471268 -2.596030312851967e-06 -6.629988512711751e-05)
(1.000150170766773 -2.732531049554623e-06 -6.855665159078961e-05)
(1.000177401878859 -1.958515396014829e-06 -4.16078447996018e-05)
(1.00016343941301 -2.158683566423926e-06 -4.49023308398467e-05)
(1.000148909094526 -2.29104981055522e-06 -4.665118646046967e-05)
(1.000173948141544 -1.704339636223731e-06 -2.402063830261883e-05)
(1.000161269075366 -1.890102506479404e-06 -2.599933565795914e-05)
(1.000147952703061 -2.018298354898744e-06 -2.709574337523768e-05)
(1.0001722358088 -1.583817324576399e-06 -7.853900547812844e-06)
(1.000160172817878 -1.762320773651038e-06 -8.513292171416522e-06)
(1.00014744313636 -1.888066411237791e-06 -8.885894664654532e-06)
(0.9999410092116636 -4.637680513595784e-06 -0.0001007944287608771)
(0.9999427580747209 -1.70039962561175e-05 -0.0001236837419177834)
(0.9999422270107218 -3.637553428436927e-06 -7.877331284215986e-05)
(0.9999436342436021 -2.732682519200939e-06 -5.899865785893223e-05)
(0.9999430746458475 -1.371153108039056e-05 -9.933754021824052e-05)
(0.9999440845131669 -1.076120093280107e-05 -7.768817051310543e-05)
(0.9999449178479706 -1.900757954939744e-06 -4.094034228475209e-05)
(0.9999453276316755 -8.08816876318034e-06 -5.821750244908822e-05)
(1.000443223316144 -9.364867411351465e-06 -0.0002335269968131956)
(1.000381001860963 -1.17950710461323e-05 -0.0002961257391114551)
(1.000313112971913 -1.324820780188428e-05 -0.0003348947756630167)
(1.000438140104883 -2.643138983958516e-05 -0.0002254658636646492)
(1.0003771169516 -3.422740291456228e-05 -0.0002866491084557694)
(1.000311391745714 -3.892075376456807e-05 -0.0003251358097340449)
(1.000284270849445 -9.203776519992196e-06 -0.0002478653104902871)
(1.000370796266301 -1.775351445875864e-05 -0.0001613596688143287)
(1.000329494460772 -2.325614136118923e-05 -0.0002090064858418332)