/*--------------------------------*- C++ -*----------------------------------*\
  =========                 |
  \\      /  F ield         | OpenFOAM: The Open Source CFD Toolbox
   \\    /   O peration     | Website:  https://openfoam.org
    \\  /    A nd           | Version:  7
     \\/     M anipulation  |
\*---------------------------------------------------------------------------*/
FoamFile
{
    version     2.0;
    format      ascii;
    class       volVectorField;
    location    "0";
    object      grad(Phi);
}
// * * * * * * * * * * * * * * * * * * * * * * * * * * * * * * * * * * * * * //

dimensions      [0 1 -1 0 0 0 0];

internalField   nonuniform List<vector> 
12671
(
(-1.000082753112435 -1.778974441535201e-06 1.804732255262434e-05)
(-1.000076950393477 -1.569491279163054e-06 1.61342401617304e-05)
(-1.000071904954893 -1.345314698531072e-06 1.399433403476718e-05)
(-1.00006765776097 -1.110815778027239e-06 1.16737147690517e-05)
(-1.00006423649796 -8.693779647296202e-07 9.213664773937391e-06)
(-1.000061658938066 -6.23510980179992e-07 6.650798431593719e-06)
(-1.000059935794745 -3.750098831467502e-07 4.017665391295533e-06)
(-1.000059000991806 -1.251430273018833e-07 1.343685851377849e-06)
(-1.000088726791221 -8.868522513028186e-06 2.037791846051871e-05)
(-1.000082154813482 -8.011020158571544e-06 1.866071228004887e-05)
(-1.000076299903862 -7.06434392316891e-06 1.666355949565774e-05)
(-1.000071216941641 -6.052820574753473e-06 1.443898993293825e-05)
(-1.000066943855869 -4.996026730319695e-06 1.203441492665607e-05)
(-1.000063505540763 -3.9090314841729e-06 9.491815032303587e-06)
(-1.000060917385944 -2.80293069754293e-06 6.848004277453855e-06)
(-1.000059188242816 -1.685579181731617e-06 4.135345695187925e-06)
(-1.000058250552841 -5.624476642761891e-07 1.382800070695334e-06)
(-1.000087658273405 -1.481451685791968e-05 2.1782384548683e-05)
(-1.000080948933845 -1.33680028666651e-05 1.989872507357103e-05)
(-1.000074992193893 -1.177717607703238e-05 1.77305286015526e-05)
(-1.000069836637701 -1.008254393142222e-05 1.533429175674222e-05)
(-1.000065513971879 -8.316405137875674e-06 1.275997797795153e-05)
(-1.000062043401927 -6.503341345776107e-06 1.005088851806264e-05)
(-1.000059435485763 -4.661179728526684e-06 7.244146367297796e-06)
(-1.000057695311712 -2.80226685273041e-06 4.371644456412769e-06)
(-1.000056752377026 -9.349334861295718e-07 1.461324472796679e-06)
(-1.000093681049696 -2.260049366653579e-05 2.570670593350024e-05)
(-1.000086026619961 -2.080130795345501e-05 2.392512864247335e-05)
(-1.000079117472701 -1.874070346508106e-05 2.178311343450835e-05)
(-1.000073014444927 -1.648728374759035e-05 1.935114517720251e-05)
(-1.000067756170703 -1.409760043435967e-05 1.669163649946015e-05)
(-1.000063364653283 -1.161611863531563e-05 1.385824363641446e-05)
(-1.000059850315354 -9.076091581960844e-06 1.089605121485596e-05)
(-1.000057216311451 -6.50105841260019e-06 7.842414741219633e-06)
(-1.000055461996573 -3.906737068515306e-06 4.728275539927919e-06)
(-1.000054512507967 -1.303147028369756e-06 1.579797182284378e-06)
(-1.000100539628207 -3.1174065583617e-05 3.063245885141842e-05)
(-1.000091792536208 -2.921253383725295e-05 2.897380651327487e-05)
(-1.000083798483203 -2.682555556621197e-05 2.684727724933117e-05)
(-1.000076634909639 -2.411777709210295e-05 2.434464313752415e-05)
(-1.000070349090862 -2.117827501035843e-05 2.154769484294491e-05)
(-1.000064965472588 -1.807929224695297e-05 1.852662803367631e-05)
(-1.000060492463027 -1.487656247656236e-05 1.533973695124454e-05)
(-1.000056928341705 -1.161075786515467e-05 1.203409149989959e-05)
(-1.00005426613125 -8.309668460493348e-06 8.646910895189841e-06)
(-1.000052497400327 -4.990814980288168e-06 5.207402550775634e-06)
(-1.000051541591587 -1.664290980363516e-06 1.738889779139294e-06)
(-1.00009861125566 -3.841670894333409e-05 3.527376485843758e-05)
(-1.000089332539679 -3.588964738732191e-05 3.318793427781374e-05)
(-1.000080931863216 -3.286361306220625e-05 3.059980338403078e-05)
(-1.000073470192146 -2.946995604014009e-05 2.762064695884501e-05)
(-1.000066975960082 -2.581842315141366e-05 2.43465563462418e-05)
(-1.000061454458169 -2.199622275855793e-05 2.085719816839416e-05)
(-1.000056896118901 -1.806900900969145e-05 1.721613517301061e-05)
(-1.000053283421338 -1.408314875017702e-05 1.347223983186224e-05)
(-1.000050596368566 -1.006876206643967e-05 9.661816855221301e-06)
(-1.000048816619093 -6.043171576486362e-06 5.811144412613232e-06)
(-1.000047856716019 -2.014526376673104e-06 1.939244121503137e-06)
(-1.000096133866755 -4.575201581524808e-05 4.107578589097646e-05)
(-1.000086239440327 -4.258721269900797e-05 3.842625540704556e-05)
(-1.000077378791856 -3.886503804717565e-05 3.523959993926798e-05)
(-1.000069589719728 -3.474472575115694e-05 3.165143309267902e-05)
(-1.000062875357581 -3.035641795867684e-05 2.777506119472554e-05)
(-1.000057216058446 -2.58010008498123e-05 2.370097335007679e-05)
(-1.000052579389018 -2.115213285525099e-05 1.949815488280687e-05)
(-1.000048928094762 -1.645962631258144e-05 1.521656503347578e-05)
(-1.000046226154076 -1.175355192190031e-05 1.089027343607165e-05)
(-1.000044443164638 -7.048642822582447e-06 6.540915505892547e-06)
(-1.000043483757786 -2.348751188790913e-06 2.181253990802946e-06)
(-1.000093023992224 -5.310280482673238e-05 4.81480509780999e-05)
(-1.000082445561911 -4.922243329263912e-05 4.476974402024204e-05)
(-1.000073089376268 -4.4746029638887e-05 4.082385098980588e-05)
(-1.000064961572057 -3.986123360255622e-05 3.647531620173271e-05)
(-1.000058032235181 -3.47175332002791e-05 3.18572733961938e-05)
(-1.000052250173065 -2.942744212042227e-05 2.707182031379503e-05)
(-1.000047554744364 -2.407003312399074e-05 2.219283569977316e-05)
(-1.000043884840405 -1.869576534585522e-05 1.726994189558246e-05)
(-1.000041185385075 -1.333185994484284e-05 1.233298029917312e-05)
(-1.00003941181836 -7.987761379835161e-06 7.396606037909922e-06)
(-1.000038460118426 -2.660451372288177e-06 2.464795827697722e-06)
(-1.000089192418099 -6.033891663315138e-05 5.659934172449744e-05)
(-1.000077882665139 -5.566612575225166e-05 5.2294455113727e-05)
(-1.000068017592166 -5.038331471896038e-05 4.740232615965207e-05)
(-1.000059561223289 -4.470592661998125e-05 4.212206038211381e-05)
(-1.000052441566099 -3.880065176087293e-05 3.660859250749442e-05)
(-1.00004656855837 -3.278863888200868e-05 3.097554572426089e-05)
(-1.000041847712243 -2.675105052107898e-05 2.530023265653213e-05)
(-1.000038189921582 -2.07356754157174e-05 1.962962663592321e-05)
(-1.00003551815011 -1.476375979087011e-05 1.398654612941206e-05)
(-1.000033771756065 -8.83659205341829e-06 8.37562732484644e-06)
(-1.000032837680788 -2.941654197355369e-06 2.788916349688315e-06)
(-1.000084551737182 -6.726694085679166e-05 6.652411051043109e-05)
(-1.000072489959997 -6.173546115584298e-05 6.105961100328749e-05)
(-1.000062129177136 -5.560936661619386e-05 5.500730251148479e-05)
(-1.000053378909099 -4.912968186476774e-05 4.860462040330915e-05)
(-1.000046114947443 -4.247677776647586e-05 4.202917957552791e-05)
(-1.000040200571825 -3.577639594209972e-05 3.540481076644763e-05)
(-1.000035501780898 -2.91077556761055e-05 2.880960656768046e-05)
(-1.000031897549674 -2.251225646299208e-05 2.22845209139526e-05)
(-1.000029286301713 -1.60018944398433e-05 1.584166043367631e-05)
(-1.000027589712766 -9.56697407394894e-06 9.471865700668584e-06)
(-1.000026685748663 -3.183017422012172e-06 3.151492400578259e-06)
(-1.000079027507958 -7.36219921693148e-05 7.798401049783272e-05)
(-1.000066225090898 -6.718920178294694e-05 7.109214568924096e-05)
(-1.000055411812875 -6.021025269364871e-05 6.364103756462511e-05)
(-1.00004642863444 -5.294747112882801e-05 5.590927154078963e-05)
(-1.000039088280176 -4.558983961011625e-05 4.809637956731762e-05)
(-1.00003319953628 -3.826263031347916e-05 4.033345944781098e-05)
(-1.000028583572764 -3.103853651131853e-05 3.269529943749043e-05)
(-1.000104706755021 -1.984329086823742e-06 2.057894240191975e-05)
(-1.000097485825114 -1.876925937782636e-06 1.97425150893129e-05)
(-1.000090728233556 -1.738769439097009e-06 1.853810886848799e-05)
(-1.000084536680582 -1.575974704959303e-06 1.701671979748789e-05)
(-1.000078991984936 -1.394046876157463e-06 1.522838595491298e-05)
(-1.000074155746933 -1.197730583157819e-06 1.322046690857056e-05)
(-1.000070073379367 -9.909554234965308e-07 1.103659210201368e-05)
(-1.00006677717954 -7.768586487433225e-07 8.716215107053368e-06)
(-1.000064289188412 -5.578664997729679e-07 6.294687016938227e-06)
(-1.000062623651673 -3.358173680245684e-07 3.803749398353413e-06)
(-1.000061719320636 -1.121129973302736e-07 1.27234573538528e-06)
(-1.000104440371789 -8.943576090381122e-06 2.133532447411405e-05)
(-1.000097117485642 -8.454916931244283e-06 2.044043212207678e-05)
(-1.000090276806707 -7.828604457360657e-06 1.916913479048615e-05)
(-1.000084019596738 -7.09235012252838e-06 1.757547497350053e-05)
(-1.000078424618753 -6.271013704317518e-06 1.571194068046137e-05)
(-1.000073551109754 -5.385943592117828e-06 1.362772219089584e-05)
(-1.000069442071466 -4.454750957449968e-06 1.136768845340717e-05)
(-1.000066127546155 -3.491431020963468e-06 8.972005711475089e-06)
(-1.000063627626491 -2.506745352626251e-06 6.476296125149867e-06)
(-1.000061955021419 -1.508788812887382e-06 3.912226379497987e-06)
(-1.000061047164272 -5.036790329816242e-07 1.308418421263785e-06)
(-1.000103896488724 -1.495028559816982e-05 2.286627692214688e-05)
(-1.000096370853481 -1.41181525723511e-05 2.185101808569778e-05)
(-1.000089365666747 -1.305912634497192e-05 2.044278961604692e-05)
(-1.000082979089829 -1.182001734290057e-05 1.870183601609766e-05)
(-1.000077285578405 -1.044252817816723e-05 1.66855942094816e-05)
(-1.000072339484187 -8.962214204100161e-06 1.444691556054055e-05)
(-1.000068178866796 -7.408174452550108e-06 1.203311341708945e-05)
(-1.000064829173936 -5.803317887909108e-06 9.485721966803137e-06)
(-1.000062306546204 -4.165054752924777e-06 6.840834581191717e-06)
(-1.000060620585353 -2.506283123204613e-06 4.129890249782149e-06)
(-1.000059706103365 -8.365674812881643e-07 1.380786696268456e-06)
(-1.000103053013406 -2.101405163945631e-05 2.520750784575987e-05)
(-1.000095226326389 -1.981234041159584e-05 2.400305206917317e-05)
(-1.000087978671477 -1.829853973145382e-05 2.238154903323904e-05)
(-1.000081402998571 -1.653942442603179e-05 2.041281087049161e-05)
(-1.000075566815614 -1.459387534552545e-05 1.816180702151786e-05)
(-1.000070516756029 -1.251155783876796e-05 1.568686993851919e-05)
(-1.00006628317515 -1.033263526972741e-05 1.303888436912925e-05)
(-1.000062884426455 -8.088277773543353e-06 1.026128674926809e-05)
(-1.000060330591726 -5.801743033995079e-06 7.390696269396323e-06)
(-1.000058626534148 -3.489842508141923e-06 4.458013672077092e-06)
(-1.000057703173898 -1.164649945484109e-06 1.4898475013679e-06)
(-1.000101877248045 -2.713839725343461e-05 2.841077238342698e-05)
(-1.000093655341572 -2.553161322627081e-05 2.69377835457655e-05)
(-1.000086092750762 -2.353368245744373e-05 2.501722228226997e-05)
(-1.000079274425444 -2.123240642371028e-05 2.273212074466953e-05)
(-1.000073257711818 -1.870417327021211e-05 2.015766278466015e-05)
(-1.000068078244111 -1.601250617433443e-05 1.735943952580889e-05)
(-1.000063755586731 -1.320795518189316e-05 1.439289620226652e-05)
(-1.0000602982817 -1.032898679420579e-05 1.130370966304949e-05)
(-1.000057708110939 -7.403564115271473e-06 8.128852530890707e-06)
(-1.000055983492265 -4.451171485398071e-06 4.898136923392467e-06)
(-1.000055050241798 -1.485103428650188e-06 1.636073875853975e-06)
(-1.000100326673068 -3.33066073321398e-05 3.254132480591673e-05)
(-1.000091621611593 -3.125128493386428e-05 3.070633357302266e-05)
(-1.000083679464675 -2.873441193984583e-05 2.838844815654622e-05)
(-1.000076573489384 -2.586591353770377e-05 2.568789938812162e-05)
(-1.000070346915364 -2.273986504230945e-05 2.269284123481785e-05)
(-1.00006502053794 -1.943312839147727e-05 1.947779472667084e-05)
(-1.00006059965577 -1.600563320081064e-05 1.610353262296578e-05)
(-1.000057080035389 -1.250182560275114e-05 1.261802338260881e-05)
(-1.000054452776417 -8.952882893542616e-06 9.058104473273499e-06)
(-1.000052708073461 -5.379387812365459e-06 5.451624800762156e-06)
(-1.000051765519384 -1.794250806222486e-06 1.819868335276069e-06)
(-1.000098350422186 -3.947482798238871e-05 3.767389616547176e-05)
(-1.00008908314618 -3.692187590531577e-05 3.536575318215462e-05)
(-1.000080707379366 -3.384857863464326e-05 3.25370142167898e-05)
(-1.000073279878546 -3.038789606879529e-05 2.930939511891519e-05)
(-1.000066824926672 -2.665143864066792e-05 2.578677235522281e-05)
(-1.000061344012269 -2.272848827444825e-05 2.205405579863886e-05)
(-1.000056824283943 -1.868693656115184e-05 1.817777731345737e-05)
(-1.000053245531393 -1.45755071598863e-05 1.420785354865306e-05)
(-1.000050585673148 -1.042675758417003e-05 1.018008594759906e-05)
(-1.000048824860178 -6.260497460775023e-06 6.119079499950453e-06)
(-1.000047875481648 -2.087390130370231e-06 2.041369061019868e-06)
(-1.000095891819971 -4.556475816253075e-05 4.388668718366887e-05)
(-1.000085995362245 -4.246309658495482e-05 4.097337464055397e-05)
(-1.000077145484838 -3.879722958499706e-05 3.750275671849014e-05)
(-1.00006937634939 -3.472359681122605e-05 3.362252905168305e-05)
(-1.00006268750757 -3.037064694666463e-05 2.945489515759905e-05)
(-1.000057056035861 -2.583862338756418e-05 2.50962454230367e-05)
(-1.000052446674655 -2.1201480547517e-05 2.061882331033457e-05)
(-1.000048819856412 -1.65101197856509e-05 1.607363373582962e-05)
(-1.000046137766718 -1.17963358934326e-05 1.1494032924614e-05)
(-1.000044368706007 -7.077064271943014e-06 6.899620979607697e-06)
(-1.000043417074149 -2.358689851517051e-06 2.300213281875925e-06)
(-1.000092892423995 -5.145639693870932e-05 5.125280720125004e-05)
(-1.000082315617603 -4.775827451974912e-05 4.75790797965742e-05)
(-1.000072967879592 -4.347051101949454e-05 4.331681924223561e-05)
(-1.000064853295908 -3.877267815011187e-05 3.864420041253668e-05)
(-1.000057939953248 -3.380859793056225e-05 3.370398819419498e-05)
(-1.00005217484587 -2.868735285121996e-05 2.860457342429765e-05)
(-1.000047495780341 -2.34865398646146e-05 2.342321644065036e-05)
(-1.000043840386738 -1.82567673245871e-05 1.821050841560772e-05)
(-1.000041152617634 -1.302669045699635e-05 1.299535609570683e-05)
(-1.000039387214135 -7.80814762796337e-06 7.790059824472844e-06)
(-1.000038440059097 -2.601174037664084e-06 2.595266540879277e-06)
(-1.000089298033095 -5.698172313528531e-05 5.982862662788894e-05)
(-1.000078009476326 -5.265004124144207e-05 5.52151895650794e-05)
(-1.000068159888469 -4.772499171257222e-05 4.999314642501122e-05)
(-1.000059714436301 -4.240779372999246e-05 4.437532998611976e-05)
(-1.000052602182272 -3.685521055207808e-05 3.85266306405039e-05)
(-1.000046733977795 -3.118230154386384e-05 3.256714475508413e-05)
(-1.000042016089128 -2.5467383543698e-05 2.657763165432922e-05)
(-1.000038360007004 -1.975801596665319e-05 2.0606012402414e-05)
(-1.000035689147021 -1.407723326424245e-05 1.467408606313357e-05)
(-1.000033943189587 -8.429587799119191e-06 8.784006038220897e-06)
(-1.000033009294325 -2.806823443835025e-06 2.924332615946292e-06)
(-1.00008506703798 -6.192069468236032e-05 6.963871581292636e-05)
(-1.00007305888618 -5.693847407095547e-05 6.388389804494906e-05)
(-1.00006272563208 -5.138339262211738e-05 5.751829695493749e-05)
(-1.000053983514747 -4.547538631194392e-05 5.079281471034781e-05)
(-1.000046714461062 -3.938063445607658e-05 4.389500255881592e-05)
(-1.000040787018862 -3.321658291388644e-05 3.695529909203987e-05)
(-1.000036071494763 -2.705894871368726e-05 3.005546789759822e-05)
(-1.000032450236459 -2.094936338603575e-05 2.323767811622188e-05)
(-1.000029824189467 -1.490284670385703e-05 1.651330119521206e-05)
(-1.000105319036501 -1.738118890592771e-06 1.888926967668982e-05)
(-1.00009849173248 -1.649344189225023e-06 1.814363231499647e-05)
(-1.000092078333607 -1.532648872704126e-06 1.705630326971199e-05)
(-1.000086181039738 -1.393167296193169e-06 1.567309111974371e-05)
(-1.000080882226826 -1.235608254379632e-06 1.403937071306214e-05)
(-1.000076246455669 -1.064114622639804e-06 1.219848403410568e-05)
(-1.000072322878907 -8.822016306365008e-07 1.019072767473095e-05)
(-1.000069147756798 -6.927606426289249e-07 8.052883161038331e-06)
(-1.000066746848979 -4.981142149862406e-07 5.818218757929655e-06)
(-1.000065137505358 -3.001091104516958e-07 3.516877822594643e-06)
(-1.000064262963512 -1.002356965762467e-07 1.176564155309957e-06)
(-1.000105102590402 -7.82740825755446e-06 1.955685383668818e-05)
(-1.000098183527454 -7.424128562583029e-06 1.876161199033695e-05)
(-1.000091694068268 -6.895817453056444e-06 1.761680029569962e-05)
(-1.00008573547881 -6.265721217868586e-06 1.617086001416857e-05)
(-1.000080388647816 -5.555092516651395e-06 1.447131980610754e-05)
(-1.000075716345734 -4.782570185213131e-06 1.25631645947514e-05)
(-1.000071765847937 -3.963915368276934e-06 1.048783760770889e-05)
(-1.000068571625675 -3.112042236574929e-06 8.282817722911578e-06)
(-1.00006615787168 -2.237277863137523e-06 5.981689130960832e-06)
(-1.000064540687581 -1.347790442751856e-06 3.614609144250809e-06)
(-1.000063662147308 -4.501338119328993e-07 1.209078435164595e-06)
(-1.000104661726079 -1.30629653793958e-05 2.090592350553858e-05)
(-1.000097560141676 -1.23783177528037e-05 2.000884593928464e-05)
(-1.000090919926262 -1.14873735350685e-05 1.874664994236855e-05)
(-1.000084840314801 -1.042933354478147e-05 1.71731321995067e-05)
(-1.000079399075793 -9.239814509509609e-06 1.534017142921535e-05)
(-1.000074655278521 -7.949855192812283e-06 1.329604309204318e-05)
(-1.000070652350958 -6.585523653734957e-06 1.108446019812138e-05)
(-1.000067421119293 -5.168014556633367e-06 8.744253767366612e-06)
(-1.000064982597185 -3.714122436271431e-06 6.309585383340776e-06)
(-1.000063350361307 -2.236987156844892e-06 3.810579161545041e-06)
(-1.000062464168923 -7.470247960217378e-07 1.274265094315856e-06)
(-1.000103980694612 -1.831635984084215e-05 2.296357348476947e-05)
(-1.000096607935609 -1.733205801146561e-05 2.190716370837729e-05)
(-1.00008974508406 -1.606350269200973e-05 2.046286774940946e-05)
(-1.000083487919785 -1.456647999620304e-05 1.869273250560051e-05)
(-1.000077909169464 -1.289121272329824e-05 1.665525995327122e-05)
(-1.000073062054878 -1.108105775604605e-05 1.440366520248696e-05)
(-1.0000689840073 -9.172057893525084e-06 1.198500115289374e-05)
(-1.000065700224458 -7.193175753705686e-06 9.440016364833175e-06)
(-1.000063226844281 -5.167039821840527e-06 6.803599940326764e-06)
(-1.00006157358994 -3.111053013704622e-06 4.105672479716889e-06)
(-1.000060676772945 -1.038742449513327e-06 1.372397146621587e-06)
(-1.000103036423592 -2.357832658916884e-05 2.576857592263216e-05)
(-1.000095307284527 -2.226984942255173e-05 2.448743291338929e-05)
(-1.000088154348247 -2.060412433135813e-05 2.278918095511106e-05)
(-1.000081668024833 -1.865429255598617e-05 2.074724963195777e-05)
(-1.000075913653553 -1.648541814658345e-05 1.842913114325327e-05)
(-1.000070936123691 -1.415297728779591e-05 1.589461270702405e-05)
(-1.000066764468956 -1.170246249937455e-05 1.319506279045132e-05)
(-1.000063416101221 -9.1698520663375e-06 1.037356871634813e-05)
(-1.000060900474445 -6.58270996362056e-06 7.46572469319196e-06)
(-1.000059222063934 -3.961717739864371e-06 4.50089110597952e-06)
(-1.000058312648681 -1.3224836881015e-06 1.503776390530738e-06)
(-1.00010179935541 -2.882275931193057e-05 2.936885963213642e-05)
(-1.000093633733352 -2.716067883534751e-05 2.778709608707278e-05)
(-1.000086129527193 -2.507525713002496e-05 2.575372157306574e-05)
(-1.0000793692136 -2.265777900967138e-05 2.335695591778883e-05)
(-1.000073407854196 -1.99882739533309e-05 2.067573238760148e-05)
(-1.000068279099231 -1.713394161884118e-05 1.777798514879631e-05)
(-1.000064000882079 -1.414895357310092e-05 1.472022136887023e-05)
(-1.000060580471922 -1.107528544008762e-05 1.154807894748944e-05)
(-1.000058018709954 -7.944270313420314e-06 8.297596280461746e-06)
(-1.000056313363665 -4.778623907908465e-06 4.996967000480167e-06)
(-1.000055390660409 -1.594756363465581e-06 1.668605230981127e-06)
(-1.000100234856947 -3.400146192400479e-05 3.381770502665127e-05)
(-1.000091559782345 -3.195349159335052e-05 3.184655650059287e-05)
(-1.000083651448421 -2.942521846516232e-05 2.938572046008867e-05)
(-1.000076581041656 -2.652671645675406e-05 2.654188579734235e-05)
(-1.000070389816162 -2.335286211008204e-05 2.340791436747845e-05)
(-1.000065096803311 -1.99818912000048e-05 2.006133438951447e-05)
(-1.000060705812777 -1.647558178619047e-05 1.656438427185432e-05)
(-1.000057211417962 -1.288060130388847e-05 1.296517873300626e-05)
(-1.000054603812913 -9.23062602586908e-06 9.299631737990411e-06)
(-1.000052872549984 -5.548932494492408e-06 5.593853242016595e-06)
(-1.000051937386686 -1.851251065526777e-06 1.866818769017965e-06)
(-1.000098305437287 -3.903893268253347e-05 3.916831903487828e-05)
(-1.000089057489893 -3.657291644199026e-05 3.67041806685132e-05)
(-1.000080702752056 -3.358123157681819e-05 3.371105625821405e-05)
(-1.000073296857245 -3.019304240559106e-05 3.031799289947347e-05)
(-1.000066863028939 -2.65175596527722e-05 2.663421140123996e-05)
(-1.000061401818907 -2.264297743670425e-05 2.274804975353991e-05)
(-1.000056899592183 -1.863725688511231e-05 1.872774150539169e-05)
(-1.000053335516161 -1.45501585193665e-05 1.462343452890228e-05)
(-1.000050687041145 -1.041604443430264e-05 1.046997430367749e-05)
(-1.000048933988704 -6.257103186579805e-06 6.290107479752034e-06)
(-1.000047988869949 -2.086771839576608e-06 2.097882035842642e-06)
(-1.00009597403699 -4.382762220878062e-05 4.546644835180178e-05)
(-1.000086102081239 -4.09156745804217e-05 4.238970725367614e-05)
(-1.000077271574385 -3.744683966577788e-05 3.874655065824072e-05)
(-1.000069517369732 -3.356909708074323e-05 3.469235038591674e-05)
(-1.000062839751194 -2.940492572500716e-05 3.035491247133268e-05)
(-1.000057216500543 -2.505092171667388e-05 2.583423232023835e-05)
(-1.00005261299386 -2.057942759337028e-05 2.120436058330145e-05)
(-1.000048990205511 -1.604142608246929e-05 1.651657952544004e-05)
(-1.00004631075758 -1.147013332597485e-05 1.180328842634973e-05)
(-1.00004454327739 -6.884907528425991e-06 7.082192893883959e-06)
(-1.000043592440883 -2.295244887068176e-06 2.360561046236502e-06)
(-1.000093208633012 -4.822439265184117e-05 5.274077134569923e-05)
(-1.00008267670735 -4.484832797002615e-05 4.891594962796236e-05)
(-1.000073356174557 -4.090069327089543e-05 4.449300182951545e-05)
(-1.000065254943304 -3.654718848489195e-05 3.965745277896138e-05)
(-1.000058344853575 -3.192179860311848e-05 3.455751679564662e-05)
(-1.000052576320775 -2.712743007193813e-05 2.930516455157027e-05)
(-1.000047890096549 -2.223863809569522e-05 2.397952695954275e-05)
(-1.000044226221894 -1.730554498735599e-05 1.863159351733758e-05)
(-1.00004153052259 -1.235830844392718e-05 1.328946987285582e-05)
(-1.000039759100265 -7.411734960605005e-06 7.96373740646699e-06)
(-1.000038808441822 -2.469824745304971e-06 2.652681435832638e-06)
(-1.00008998830723 -5.204922735946324e-05 6.099102243627743e-05)
(-1.000078778381859 -4.820725397336475e-05 5.626888372881725e-05)
(-1.0000689704349 -4.379743285043416e-05 5.092712984444301e-05)
(-1.000060538475064 -3.900104762610837e-05 4.518483109483945e-05)
(-1.000053419992781 -3.396103397967918e-05 3.921179147220656e-05)
(-1.000047533340036 -2.878398063466131e-05 3.313157695041129e-05)
(-1.000042791108775 -2.354418631322899e-05 2.702700296975213e-05)
(-1.000039109875859 -1.828872841735939e-05 2.094676818830091e-05)
(-1.000036416947553 -1.304284770436971e-05 1.491236977139261e-05)
(-1.000034654793691 -7.815245525566414e-06 8.924810496589676e-06)
(-1.000033711634745 -2.603115024077482e-06 2.970894444201383e-06)
(-1.000105851765839 -1.52337811920584e-06 1.689726905467375e-05)
(-1.000099384254607 -1.450225685761841e-06 1.624837438683613e-05)
(-1.000093287008365 -1.35175958781985e-06 1.529064537901176e-05)
(-1.00008766136073 -1.232277134999272e-06 1.406422486352387e-05)
(-1.000082590685131 -1.095796311911821e-06 1.260922999760005e-05)
(-1.000078141841509 -9.459273389024633e-07 1.096430857958177e-05)
(-1.000074367037415 -7.858080888212747e-07 9.165698255134319e-06)
(-1.00007130584949 -6.180943084022686e-07 7.246758506652992e-06)
(-1.000068987193941 -4.449940993466729e-07 5.237919304037876e-06)
(-1.000067431079654 -2.683362173572177e-07 3.166975632338178e-06)
(-1.000066584809645 -8.966266124016864e-08 1.05965069141703e-06)
(-1.000105676847256 -6.854898910502079e-06 1.747283394577753e-05)
(-1.00009912682681 -6.523088534660106e-06 1.678277333298814e-05)
(-1.000092960085539 -6.077888260680637e-06 1.577674074453456e-05)
(-1.000087277415816 -5.538736147059573e-06 1.449710002930511e-05)
(-1.000082161160437 -4.923755819730236e-06 1.298581399083061e-05)
(-1.000077676859174 -4.249185996396844e-06 1.128296542274714e-05)
(-1.000073875287869 -3.529099415367035e-06 9.425820400383306e-06)
(-1.000070794628506 -2.775368607266321e-06 7.44839333746232e-06)
(-1.000068462556805 -1.997829919164735e-06 5.381448138005237e-06)
(-1.000066898082497 -1.204598140403048e-06 3.252857090191656e-06)
(-1.00006604748544 -4.024887747255092e-07 1.088234787415228e-06)
(-1.000105321400669 -1.142189739122847e-05 1.863426894801916e-05)
(-1.000098607243957 -1.086025972152357e-05 1.785991761572221e-05)
(-1.000092302655978 -1.01114136250582e-05 1.675546690681047e-05)
(-1.00008650722829 -9.208077976774579e-06 1.53677940044309e-05)
(-1.000081301134981 -8.180590168604859e-06 1.374258883279532e-05)
(-1.000076747185104 -7.055981431802612e-06 1.192281082322601e-05)
(-1.000072893220026 -5.857540780751524e-06 9.947767505643849e-06)
(-1.000069774579994 -4.604790723061746e-06 7.852752236010717e-06)
(-1.000067416423474 -3.313789986081498e-06 5.669155852600458e-06)
(-1.00006583573851 -1.997681811471883e-06 3.424958365307649e-06)
(-1.000064976766668 -6.674159587077011e-07 1.145507113320261e-06)
(-1.000104774415032 -1.597773306460936e-05 2.040150096125278e-05)
(-1.000097816343043 -1.517380390270176e-05 1.949583044262604e-05)
(-1.000091307903795 -1.411163261111339e-05 1.823926380981142e-05)
(-1.00008534659236 -1.283765994242172e-05 1.668562054574797e-05)
(-1.000080009063892 -1.139459564170045e-05 1.488626462576136e-05)
(-1.000075353809786 -9.820182166109192e-06 1.288848168953143e-05)
(-1.00007142409716 -8.146654013385665e-06 1.073459862558101e-05)
(-1.000068250877711 -6.400773004955338e-06 8.461747031752296e-06)
(-1.000065855447893 -4.604313034506366e-06 6.102154245488104e-06)
(-1.000064251708469 -2.774876565691912e-06 3.683844249945522e-06)
(-1.000063380865648 -9.269418172615479e-07 1.231638822946658e-06)
(-1.000104019934921 -2.050435088651883e-05 2.280264137345431e-05)
(-1.000096741143503 -1.944168326262196e-05 2.171281995570034e-05)
(-1.000089966512018 -1.805386956865687e-05 2.024517678521208e-05)
(-1.00008379019132 -1.640160360394379e-05 1.846309198658598e-05)
(-1.000078283657204 -1.454011253465579e-05 1.64256331941004e-05)
(-1.000073499243476 -1.251767480137115e-05 1.418586003010621e-05)
(-1.000069473810865 -1.037504852963178e-05 1.179003361409052e-05)
(-1.000066232239015 -8.145636262168956e-06 9.277579206763748e-06)
(-1.000063790527035 -5.856210762988836e-06 6.681641652651247e-06)
(-1.000062158367292 -3.528045017464697e-06 4.030083359168001e-06)
(-1.000061272965323 -1.178316484134943e-06 1.346794335462996e-06)
(-1.000103037851299 -2.497000933154861e-05 2.587166130249662e-05)
(-1.000095365861726 -2.362933550426058e-05 2.453726599321281e-05)
(-1.000088267824136 -2.190228173826183e-05 2.279282100943798e-05)
(-1.000081832835326 -1.986432608069835e-05 2.071410695200107e-05)
(-1.00007612513509 -1.758326813150481e-05 1.837000502159923e-05)
(-1.000071188745781 -1.511759522032646e-05 1.582076925507313e-05)
(-1.000067052058621 -1.251597880935753e-05 1.31174073182839e-05)
(-1.000063732039945 -9.817658085498082e-06 1.030194359575511e-05)
(-1.000061237856648 -7.053479168572808e-06 7.408345055346233e-06)
(-1.000059573814191 -4.24739131432705e-06 4.463918250742384e-06)
(-1.000058672202669 -1.418242628503572e-06 1.491022241161991e-06)
(-1.00010180514401 -2.932538788669181e-05 2.964499646627068e-05)
(-1.00009367341591 -2.768632401739532e-05 2.799645616108519e-05)
(-1.000086201502594 -2.560705342502536e-05 2.590152564724073e-05)
(-1.000079471177713 -2.317825062347907e-05 2.345144922319859e-05)
(-1.000073536926344 -2.048015680511375e-05 2.07270832610398e-05)
(-1.000068431954154 -1.758092136239237e-05 1.779722318432893e-05)
(-1.000064173873729 -1.453629070546888e-05 1.471827996996654e-05)
(-1.000060769739374 -1.139031745056587e-05 1.153497959866526e-05)
(-1.000058220260264 -8.176794631553723e-06 8.281790258315554e-06)
(-1.000056523130752 -4.92117339295772e-06 4.9848358628685e-06)
(-1.000055604885857 -1.642782011049355e-06 1.664113558113941e-06)
(-1.000100297718776 -3.349998829005337e-05 3.415687767092035e-05)
(-1.000091647527264 -3.154340473354712e-05 3.211433797023476e-05)
(-1.000083759750742 -2.910208402262531e-05 2.958658199880066e-05)
(-1.000076705938706 -2.628204420163115e-05 2.668356571902199e-05)
(-1.000070527805829 -2.317554176767272e-05 2.350027249680691e-05)
(-1.000065244879681 -1.985955053074302e-05 2.011524361083133e-05)
(-1.000060861454709 -1.639579079637535e-05 1.659072820293691e-05)
(-1.00005737254387 -1.283188325063019e-05 1.297399557676705e-05)
(-1.00005476871259 -9.203262894774706e-06 9.299421841200805e-06)
(-1.00005303980157 -5.535569632508942e-06 5.591052584953899e-06)
(-1.000052105856384 -1.847313921540672e-06 1.865432336922524e-06)
(-1.000098492984133 -3.739921418821618e-05 3.943320796975692e-05)
(-1.000089275511643 -3.51103709546053e-05 3.690609176288586e-05)
(-1.000080940142062 -3.230349596350381e-05 3.385456416878039e-05)
(-1.000073544635458 -2.909966613207079e-05 3.041063614454881e-05)
(-1.000067114432673 -2.560231734349818e-05 2.668546191027189e-05)
(-1.000061652203183 -2.189605538183142e-05 2.276829895300653e-05)
(-1.00005714620645 -1.804719064424387e-05 1.872737135954648e-05)
(-1.000053577211472 -1.410545980085054e-05 1.461201552849052e-05)
(-1.000050923946646 -1.01064986174902e-05 1.04556111438435e-05)