/*--------------------------------*- C++ -*----------------------------------*\
  =========                 |
  \\      /  F ield         | OpenFOAM: The Open Source CFD Toolbox
   \\    /   O peration     | Website:  https://openfoam.org
    \\  /    A nd           | Version:  7
     \\/     M anipulation  |
\*---------------------------------------------------------------------------*/
FoamFile
{
    version     2.0;
    format      ascii;
    class       volScalarField;
    location    "0";
    object      mag(grad(Phi));
}
// * * * * * * * * * * * * * * * * * * * * * * * * * * * * * * * * * * * * * //

dimensions      [0 1 -1 0 0 0 0];

internalField   nonuniform List<scalar> 
12671
(
1.000082753276857
1.000076950524855
1.000071905053712
1.00006765782972
1.000064236540781
1.000061658960376
1.000059935802885
1.000059000992716
1.000088727038154
1.000082155019665
1.000076300067639
1.000071217064193
1.000066943940757
1.000063505593448
1.000060917413318
1.000059188252786
1.000058250553955
1.000087658620345
1.000080949221153
1.000074992420413
1.000069836806088
1.000065514087861
1.00006204347358
1.000059435522863
1.000057695325193
1.000056752378531
1.00009368163545
1.000086027122471
1.000079117885528
1.000073014768052
1.000067756409363
1.000063364816765
1.000059850415898
1.000057216363331
1.000055462015382
1.000054512510063
1.000100540583196
1.000091793382557
1.000083799203336
1.000076635496758
1.000070349547242
1.000064965807615
1.000060492691323
1.000056928481511
1.000054266203156
1.000052497426339
1.000051541594484
1.000098612615567
1.000089333734325
1.000080932871317
1.000073471007775
1.000066976589713
1.000061454917569
1.000056896430326
1.000053283611246
1.000050596465926
1.000048816654236
1.000047856719928
1.000096135756807
1.000086241085309
1.00007738016791
1.000069590824155
1.00006287620401
1.000057216672125
1.000052579802792
1.000048928345981
1.000046226282442
1.000044443210869
1.000043483762923
1.000093026561056
1.000082447775317
1.000073091210531
1.000064963031645
1.000058033345213
1.000052250972452
1.000047555280283
1.000043885164282
1.000041185549989
1.000039411877615
1.000038460125003
1.000089195839929
1.000077885581626
1.000068019984733
1.000059563109621
1.000052442988864
1.000046569575612
1.000041848390075
1.000038190329212
1.000035518356899
1.000033771830181
1.000032837689004
1.000084556211953
1.000072493729495
1.000062132236048
1.000053381297039
1.000046116732725
1.0000402018385
1.000035502619495
1.000031898051359
1.000029286555215
1.000027589803385
1.000026685758694
1.000079033258356
1.000066229874822
1.00005541565039
1.000046431598943
1.000039090475938
1.000033201081637
1.000028584588922
1.000104706968714
1.00009748602174
1.000090728406883
1.000084536826596
1.00007899210185
1.000074155835035
1.000070073440757
1.000066777217826
1.000064289208378
1.000062623658963
1.000061719321452
1.000104440639353
1.000097117730267
1.000090277021059
1.000084019776323
1.000078424761837
1.000073551217108
1.000069442145996
1.000066127592496
1.000063627650603
1.00006195503021
1.000061047165255
1.000103896861874
1.000096371191843
1.000089365960945
1.000082979334545
1.000077285772118
1.000072339628694
1.000068178966628
1.000064829235761
1.000062306578274
1.000060620597021
1.000059706104668
1.000103053551855
1.00009522681068
1.000087979089326
1.000081403343661
1.00007556708701
1.000070516957323
1.000066283313529
1.000062884511807
1.000060330635865
1.000058626550173
1.000057703175686
1.000101878019799
1.000093656030262
1.000086093340559
1.000079274909188
1.000073258089879
1.000068078522967
1.000063755777522
1.000060298398924
1.000057708171381
1.000055983514166
1.000055050244239
1.000100327757093
1.000091622571266
1.000083680280392
1.00007657415379
1.000070347431361
1.000065020916431
1.000060599913506
1.000057080193135
1.000054452857515
1.000052708102788
1.000051765522649
1.000098351910832
1.000089084453044
1.000080708481469
1.000073280769713
1.000066825614254
1.000061344513721
1.00005682462374
1.000053245738536
1.000050585779318
1.000048824898494
1.00004787548591
1.000095893820873
1.000085997103062
1.000077146940567
1.00006937751741
1.000062688402498
1.000057056684552
1.000052447111952
1.000048820121872
1.000046137902345
1.00004436875485
1.000043417079576
1.000092895061056
1.000082317889726
1.000072969762471
1.000064854794158
1.000057941092672
1.00005217566642
1.000047496330447
1.00004384071919
1.000041152786915
1.000039387274959
1.000038440065847
1.000089301445981
1.00007801238647
1.000068162276801
1.000059716319984
1.000052603603501
1.000046734994225
1.000042016766579
1.000038360414482
1.000035689353763
1.000033943263693
1.00003300930254
1.000085071379472
1.000073062547484
1.000062728606198
1.000053985838582
1.000046716199783
1.000040788253329
1.000036072312493
1.000032450725876
1.000029824436852
1.000105319216395
1.00009849189842
1.000092078480227
1.000086181163521
1.000080882326133
1.000076246530631
1.000072322931217
1.000069147789461
1.000066746866028
1.000065137511586
1.000064262964209
1.000105102812248
1.000098183730992
1.000091694247203
1.000085735629176
1.000080388767945
1.00007571643608
1.000071765910786
1.000068571664817
1.000066157892072
1.000064540695021
1.00006366214814
1.000104662029897
1.000097560418438
1.000090920167939
1.000084840516628
1.000079399236128
1.000074655398505
1.000070652434069
1.000067421170875
1.000064982623986
1.000063350371069
1.000062464170014
1.000103981125975
1.000096608325734
1.000089745422412
1.000083488200562
1.000077909391237
1.000073062219994
1.000068984121176
1.000065700294881
1.000063226880772
1.000061573603207
1.000060676774426
1.000103037033508
1.000095307832265
1.000088154820144
1.000081668414017
1.000075913959231
1.000070936350148
1.000066764624474
1.000063416197064
1.000060900523976
1.00005922208191
1.000058312650686
1.000101800201964
1.000093634488194
1.000086130173149
1.000079369743019
1.000073408267674
1.000068279404025
1.000064001090505
1.000060580599924
1.000058018775931
1.000056313387566
1.000055390663073
1.0001002360067
1.000091560799867
1.000083652313031
1.000076581745671
1.000070390362767
1.000065097204151
1.000060706085672
1.000057211584955
1.000054603898752
1.000052872581024
1.000051937390142
1.000098306966235
1.000089058832161
1.000080703884032
1.000073297772578
1.000066863735173
1.000061402333964
1.000056899941201
1.000053335728926
1.000050687150196
1.000048934028061
1.000047988874326
1.000095976030828
1.00008610381658
1.000077273026053
1.000069518534873
1.000062840644173
1.000057217147984
1.000052613430406
1.00004899047056
1.000046310893014
1.000044543326167
1.000043592446302
1.000093211186365
1.000082678909239
1.00007335800067
1.000065256397415
1.000058345960122
1.000052577118078
1.000047890631311
1.000044226545189
1.000041530687253
1.00003975915944
1.00003880844839
1.000089991521454
1.000078781126706
1.000068972690638
1.000060540256332
1.000053421338167
1.0000475343031
1.000042791751141
1.000039110262466
1.000036417143793
1.000034654864054
1.000033711642546
1.000105851909743
1.00009938438765
1.00009328712617
1.000087661460382
1.000082590765221
1.00007814190206
1.000074367079726
1.000071305875937
1.000068987207757
1.000067431084705
1.00006658481021
1.000105677023382
1.0000991269889
1.000092960228449
1.000087277536228
1.000082161256866
1.000077676931849
1.000073875338516
1.000070794660094
1.000068462573279
1.000066898088513
1.000066047486113
1.000105321639492
1.000098607462396
1.000092302847453
1.000086507388755
1.00008130126286
1.000076747281067
1.000072893286655
1.000069774621426
1.000067416445033
1.00006583574637
1.000064976767547
1.000104774750751
1.000097816648179
1.000091308169675
1.000085346813949
1.000080009239597
1.000075353941051
1.000071424187954
1.000068250933993
1.000065855477109
1.000064251719104
1.000063380866836
1.000104020405067
1.000096741568175
1.000089966879889
1.000083790496244
1.000078283897794
1.000073499422428
1.000069473934179
1.000066232315222
1.000063790566502
1.000062158381636
1.000061272966924
1.000103038497655
1.000095366441882
1.000088268323703
1.000081833247125
1.000076125458379
1.000071188985183
1.000067052222968
1.000063732141196
1.000061237908962
1.000059573833173
1.000058672204786
1.000101806013324
1.000093674191004
1.000086202165842
1.000079471721271
1.000073537350837
1.000068432267047
1.000064174087681
1.000060769870764
1.000058220327984
1.000056523155284
1.00005560488859
1.000100298863132
1.00009164854033
1.000083760611818
1.000076706640032
1.000070528350474
1.000065245279168
1.00006086172673
1.000057372710352
1.000054768798175
1.00005303983252
1.00005210585983
1.000098494460827
1.000089276808926
1.000080941236797
1.000073545521192
1.000067115116423
1.000061652702068
1.000057146544638
1.000053577417699
1.000050924052371
1.000049167219941
1.000048219882504
1.000096375151576
1.000086553439066
1.000077750410907
1.000070005856687
1.000063325036229
1.000057690363288
1.000053071270885
1.000049432101965
1.000046738125847
1.000044959909384
1.000044002910627
1.000093932519553
1.000083484215466
1.000074207214924
1.000066118590662
1.000059199203895
1.000053407710731
1.000048691966896
1.000044997832557
1.000042275654358
1.000040484815392
1.000039523057842
1.000106303823316
1.000100155835945
1.000094340577514
1.000088958295409
1.000084092915144
1.000079813016673
1.000076173230795
1.000073215833697
1.000070972348907
1.000069465001698
1.000068644675928
1.000106162679828
1.000099940317966
1.000094061481085
1.000088626173
1.000083717646358
1.000079403537383
1.000075737407714
1.000072760463965
1.000070503261121
1.000068987234588
1.000068162368824
1.000105876515136
1.000099506209144
1.000093501199716
1.000087960917913
1.000082967191784
1.000078585702672
1.000074867819913
1.000071852570355
1.000069568543145
1.000068035574985
1.000067201857968
1.000105437776033
1.000098847626244
1.000092655860481
1.000086960837844
1.000081842054819
1.000077362095377
1.000073568909468
1.000070498156667
1.000068175409006
1.000066618060563
1.000065771632448
1.000104835648768
1.000097956407121
1.000091520416497
1.000085624212658
1.000080343827578
1.000075737417601
1.000071848140363
1.000068706994512
1.000066335411348
1.000064747452608
1.000063885114789
1.000104056755085
1.000096822966925
1.000090089604096
1.000083950299278
1.000078476200052
1.000073719472722
1.000069716934744
1.000066493507176
1.000064065276549
1.000062442034097
1.000061561437385
1.00010308619331
1.000095437525091
1.000088359273599
1.000081940694961
1.000076246300313
1.000071320444809
1.000067191871386
1.000063877883026
1.000061387942397
1.000059726591166
1.00005882639164
1.000101909005529
1.000093791757466
1.00008632812008
1.000079601059414
1.000073666343762
1.000068558434818
1.000064296091489
1.000060887353295
1.00005833372613
1.00005663350155
1.000055713471115
1.000100512142547
1.000091880909707
1.000083999816535
1.000076943168345
1.000070755539593
1.00006545918337
1.000061060828445
1.000057557542069
1.000054941525335
1.00005320382951
1.000052264906941
1.000098886964411
1.000089706366786
1.000081385506609
1.000073987225563
1.00006754215964
1.000062057870513
1.000057526943229
1.000053933765752
1.00005125992721
1.000049488302392
1.000048532570519
1.000097032245703
1.000087278600999
1.000078506543653
1.000070764296122
1.000064065617968
1.000058400834981
1.000053746307804
1.000050072127533
1.000047348076078
1.000045548022551
1.000044578599943
1.000106675629534
1.00010080157385
1.000095228981108
1.000090056934052
1.000085369583231
1.000081236741839
1.000077714899243
1.000074848459139
1.000072671030436
1.000071206627072
1.000070409178635
1.00010656117586
1.000100619650922
1.000094988605872
1.000089767098656
1.000085038879111
1.00008087310919
1.00007732549518
1.000074439630881
1.000072248376002
1.000070775124706
1.000069973012095
1.000106329630861
1.000100253920162
1.000094506841982
1.000089187342409
1.00008437831174
1.000080147559029
1.00007654918344
1.000073625127569
1.000071406730059
1.000069916130264
1.000069104879819
1.000105975898494
1.000099700835382
1.000093781915832
1.000088317763657
1.000083389836756
1.000079063791735
1.000075391217696
1.000072411504951
1.000070153656591
1.000068637893802
1.00006781340791
1.000105492785945
1.000098955636036
1.000092811796372
1.000087159176248
1.00008207706297
1.00007762802149
1.000073860117496
1.000070809205806
1.000068501082135
1.000066953348875
1.000066112080969
1.000104871590807
1.000098013050918
1.000091594969629
1.000085713914298
1.000080446054797
1.000075849753336
1.000071968406506
1.000068833255081
1.00006646595136
1.000064880738271
1.000064019850488
1.000104102947609
1.00009686827863
1.000090131490741
1.000083986902413
1.000078506379344
1.000073742779257
1.000069733543152
1.000066504122736
1.000064071029961
1.000062444372542
1.00006156186788
1.000103177974488
1.000095518266087
1.000088424315115
1.000081986974812
1.000076272366091
1.00007132634891
1.000067178989814
1.000063848693696
1.000061345789656
1.000059675453426
1.000058770272891
1.000102089747929
1.000093963287813
1.000086480888341
1.000079728403093
1.000073764522871
1.00006862644669
1.000064335343978
1.000060901262874
1.000058327290117
1.000056612875261
1.00005568494967
1.000100835104035
1.000092208795262
1.000084314939146
1.000077232557573
1.000071011019349
1.000065677077508
1.000061241428756
1.000057704450609
1.00005506095267
1.000053303899459
1.000052354146038
1.000099416713621
1.000090267452824
1.000081948369431
1.000074529581455
1.000068049109438
1.000062521430293
1.00005794521312
1.000054309912114
1.000051601103182
1.000049804582721
1.000048834838356
1.000106969126011
1.0001013191
1.00009594558642
1.000090946559611
1.000086406186929
1.000082395126408
1.000078971237965
1.000076180536992
1.000074058234488
1.000072629730017
1.000071851427053
1.000106875024735
1.000101163120645
1.000095735372797
1.00009068988627
1.000086110627687
1.000082067823016
1.000078618766508
1.000075808863121
1.000073672744564
1.000072235323249
1.000071452292977
1.000106685044877
1.000100850102466
1.000095314679176
1.000090177095318
1.000085520872566
1.000081415334594
1.000077916612825
1.000075068866818
1.000072905551716
1.000071450593296
1.000070658270998
1.000106395786453
1.00010037811444
1.000094683182162
1.000089409518474
1.00008463987071
1.000080442115958
1.000076870565126
1.000073967450779
1.000071764420332
1.000070283890502
1.00006947803256
1.000106002533978
1.000099744725046
1.000093840912992
1.000088389694683
1.000083472590742
1.000079155382092
1.000075489816846
1.00007251545488
1.00007026145904
1.000068748184219
1.000067925017949
1.00010549974314
1.000098947575495
1.000092788881598
1.00008712201379
1.000082026659207
1.00007756572395
1.000073787549865
1.000070728203986
1.000068413636347
1.000066861554278
1.00006601791378
1.000104881721288
1.000097985158817
1.000091529906406
1.000085613556352
1.000080313179108
1.000075687884735
1.000071781657882
1.000068626177045
1.000066243401943
1.000064647777023
1.000063781218773
1.00010414351827
1.000096857806511
1.000090069637138
1.000083875103972
1.000078347692121
1.000073541651862
1.000069495558763
1.000066235741817
1.000063779355018
1.000062136945487
1.000061245836543
1.000103282030965
1.00009556886764
1.000088417739168
1.000081922274947
1.000076151228475
1.000071152800593
1.000066959026535
1.000063589882516
1.000061056885064
1.000059366048246
1.00005844961955
1.000102297301104
1.000094126039285
1.000086589181099
1.000079776713903
1.000073751364226
1.000068554003671
1.00006420895453
1.000060728831029
1.00005811869586
1.000056379418137
1.000055437775826
1.000101193949416
1.000092542770004
1.000084605532042
1.000077467232389
1.000071183178286
1.000065785598391
1.000061289942811
1.000057700497728
1.000055015111885
1.000053228952662
1.000052263041777
1.00010718656568
1.000101707347095
1.000096485990577
1.000091619532805
1.000087192053903
1.000083274757516
1.000079926458141
1.000077194322075
1.000075114718739
1.000073714056894
1.000072950615548
1.000107107118503
1.000101570247367
1.000096297883856
1.000091387300414
1.000086922515727
1.000082974456686
1.000079601527998
1.000076850429817
1.00007475707606
1.000073347485478
1.000072579291361
1.000106947016882
1.000101295535579
1.000095921898678
1.000090923814565
1.000086385145343
1.000082376234522
1.000078954642308
1.000076166116912
1.00007404564661
1.000072618459941
1.000071840903505
1.0001067039794
1.000100882346083
1.000095358666851
1.000090231216102
1.000085583538357
1.000081485029304
1.000077991922094
1.000075148489811
1.000072988297373
1.000071535363949
1.000070744118639
1.000106374911744
1.000100329770653
1.000094609565038
1.000089313162921
1.000084523535439
1.000080308684017
1.000076722965442
1.000073808603126
1.00007159720368
1.000070111132569
1.000069302287389
1.000105956312465
1.000099637330858
1.000093677225133
1.000088175353519
1.00008321373947
1.000078858443494
1.000075161317008
1.000072161899534
1.0000698892624
1.000068363645465
1.000067533825952
1.000105444826124
1.000098805606266
1.000092566199763
1.000086826197889
1.000081666167324
1.000077149570747
1.000073325040725
1.000070228738037
1.000067886581183
1.000066316187392
1.000065462660095
1.000104837946294
1.000097837009218
1.000091283762695
1.000085277605854
1.000079896998529
1.000075202038783
1.000071237347544
1.000068034959339
1.0000656169905
1.000063997921556
1.000063118676511
1.000104134858824
1.000096736682347
1.000089840808045
1.000083545846842
1.000077927367079
1.000073041238595
1.000068927215334
1.000065612423281
1.000063114512326
1.000061444309182
1.000060538114698
1.000103337397194
1.000095513474995
1.000088252791794
1.000081652415205
1.000075784124389
1.000070698627753
1.00006642992368
1.000062999440818
1.000060419708273
1.000058697398642
1.000057763823083
1.000102451055653
1.000094180928361
1.000086540634448
1.000079624813239
1.000073500482382
1.000068212228334
1.000063787413916
1.000060241013255
1.000057579822487
1.000055805901542
1.000054845298073
1.000107330113
1.000101966067814
1.00009684749032
1.000092070740326
1.000087719790654
1.000083866164905
1.000080569277092
1.000077877031353
1.000075826547204
1.000074444890614
1.000073691599899
1.000107260135744
1.000101841267745
1.00009667386332
1.000091854582513
1.000087467424353
1.000083583734743
1.000080262618229
1.000077551606326
1.000075487443688
1.000074096869799
1.000073338820012
1.000107119318845
1.000101591486231
1.000096327136374
1.000091423500584
1.000086964602601
1.000083021408191
1.000079652382168
1.000076904294209
1.000074813126768
1.000073404957586
1.000072637520706
1.000106906055215
1.000101216499492
1.000095808515654
1.000090780119883
1.000086215305014
1.000082184406437
1.000078744879071
1.000075942310032
1.000073811508713
1.0000723775395
1.000071596346601
1.000106618221747
1.000100716310751
1.000095120180427
1.000089928761805
1.000085225883514
1.000081080932682
1.000077549928519
1.00007467681158
1.000072494775571
1.000071027498132
1.000070228561142
1.000106253529375
1.000100091554552
1.00009426571769
1.000088875888012
1.000084005499812
1.00007972259154
1.000076081254625
1.000073123268763
1.000070879733399
1.000069372542093
1.000068552365556
1.00010580999105
1.000099344025364
1.000093250680027
1.000087630661069
1.000082566668586
1.000078124901385
1.000074356960817
1.000071301900307
1.000068988211606
1.0000674355848
1.000066591263564
1.000105286502641
1.000098477315383
1.00009208324264
1.000086205589972
1.000080925868811
1.000076307857323
1.000072400038611
1.000069238129823
1.000066847473948
1.000065245122782
1.000064374421062
1.000104683520916
1.000097497534038
1.00009077492222
1.000084617215092
1.000079104171737
1.000074296489251
1.000070238852193
1.00006696300157
1.000064490576828
1.000062835552883
1.00006193696016
1.000104003807909
1.00009641406552
1.000089341303739
1.000082886771604
1.000077127819861
1.000072121346642
1.000067907529352
1.000064513486385
1.000061956605779
1.000060247359771
1.000059320119251
1.000103253191334
1.000095240301304
1.000087802703467
1.000081040754158
1.000075028677358
1.000069818830416
1.000065446180502
1.000061932601565
1.000059290716047
1.000057527101414
1.000056571207906
1.000107401435481
1.000102095362436
1.000097028573554
1.000092297074476
1.000087984769323
1.000084163328151
1.000080892453268
1.000078220408529
1.000076184681508
1.000074812661834
1.000074064520049
1.000107336101631
1.000101976623931
1.00009686210634
1.000092088885298
1.000087740933371
1.000083889791072
1.000080594900298
1.000077904198198
1.000075854837213
1.000074473911857
1.000073721011104
1.000107204733616
1.000101739120994
1.000096529839139
1.000091673859858
1.000087255267728
1.000083345321882
1.000080002924578
1.000077275344456
1.000075199052255
1.000073800544195
1.000073038250685
1.000107006040461
1.000101382930557
1.000096033246758
1.000091054849344
1.000086531929916
1.000082535271365
1.000079122920969
1.00007634110838
1.000074225254552
1.000072800939143
1.000072024866683
1.000106738352469
1.000100908480816
1.00009537488178
1.000090236482361
1.000085577506566
1.000081468005316
1.000077964805283
1.000075112687286
1.000072945625301
1.000071487944074
1.000070694070633
1.000106399943082
1.000100316921529
1.000094558771534
1.00008922556977
1.000084401411392
1.000080155285496
1.000076542372652
1.000073605549263
1.000071376912171
1.000069879170712
1.000069063945799
1.000105989454375
1.0000996106032
1.000093590922745
1.00008803161103
1.000083016374999
1.00007861273085
1.000074873724172
1.000071839824842
1.000069540790361
1.000067997333671
1.000067157772779
1.000105506418059
1.000098793647924
1.000092479908578
1.000086667369913
1.00008143898907
1.000076860317503
1.000072981717464
1.000069840709513
1.000067464224075
1.000065870582134
1.000065004344226
1.000104951853725
1.000097872582867
1.000091237500272
1.000085149474951
1.000079690255008
1.000074922864061
1.000070894385461
1.00006763882024
1.000065179770949
1.000063532767033
1.000062638211037
1.000104328912923
1.000096856993619
1.000089879291498
1.000083498986163
1.000077796074607
1.000072830437572
1.000068645257964
1.000065270440427
1.000062725764425
1.000061023579235
1.000060099795721
1.00010364352153
1.000095760138118
1.00008842524845
1.000081741856549
1.000075787609088
1.000070618606374
1.000066273513308
1.000062777582645
1.0000601463052
1.000058388491387
1.000057435306744
1.000108698834462
1.000107013971584
1.000104806717799
1.000101970758662
1.000098394828149
1.000093973143716
1.000112288947635
1.000112144339302
1.000111843575215
1.000111363523147
1.000110669444488
1.000109715214919
1.000108444069145
1.00010679028885
1.000104682363355
1.000102048228678
1.000098823173087
1.000112459868607
1.000112351400791
1.000112126028147
1.000111766940773
1.000111249122063
1.000110539779898
1.000109599236227
1.00010838255074
1.000106842205635
1.000104932192765
1.000102613783904
1.000112591066475
1.000112511870097
1.000112347362583
1.000112085424976
1.000111708179531
1.000111192483302
1.000110510795845
1.000109632594266
1.00010852652687
1.000107163483412
1.000105520692701
1.000112687907718
1.000112631873067
1.000112515383748
1.000112329723777
1.000112062143071
1.000111696333461
1.000111213196814
1.000110592008816
1.000109812083424
1.00010885502062
1.000107707561772
1.000112756421389
1.000112718233489
1.000112638645275
1.000112511352105
1.000112327203657
1.000112074627135
1.000111740272512
1.000111309938335
1.000110769830751
1.000110108186
1.000109317241185
1.000112802625635
1.000112777718323
1.000112725526987
1.000112641407311
1.000112518666693
1.0001123489265
1.0001121226517
1.000111829878455
1.000111461162246
1.000111008749496
1.000110467942731
1.000112831970862
1.000112816424609
1.000112783508329
1.000112729671489
1.000112649828793
1.00011253766867
1.000112386089848
1.000112187780348
1.000111935944715
1.000111625169702
1.000111252394565
1.000112848906218
1.000112839309704
1.00011281862728
1.000112783967676
1.000112731208797
1.000112655267541
1.000112550472613
1.000112411045857
1.000112231689487
1.000112008263911
1.000111738522668
1.000112856565112
1.000112849855142
1.000112835102958
1.00011280972637
1.000112770053257
1.000112711571298
1.000112629268655
1.000112518067164
1.000112373341993
1.000112191510454
1.000111970657517
1.000112074366375
1.000111886133455
1.000111494052365
1.000110866667761
1.000109956304977
1.000104019122876
1.000096378234522
1.000089255384114
1.000103694039629
1.000095940256699
1.000103028671244
1.000095050502203
1.000101992649034
1.000120198895719
1.000120121833964
1.000119968831016
1.000119693691605
1.000119232976494
1.000118505132801
1.000117410432853
1.000115832583185
1.000113643160331
1.000110710268701
1.000119934538249
1.000119927848416
1.000119903419941
1.000119838919078
1.000119700300199
1.000119441401734
1.000119003838938
1.000118317621487
1.000117303072629
1.000115874762769
1.000113948237354
1.000119632086345
1.000119644370944
1.000119660711312
1.000119664561484
1.000119630916055
1.000119526273047
1.000119308895912
1.000118929664945
1.000118333884431
1.000117464464133
1.000116266881097
1.000119334533328
1.000119361075056
1.000119408018351
1.00011946307601
1.000119507823755
1.000119517840638
1.00011946311102
1.000119308876568
1.000119017161631
1.000118549205567
1.000117868995899
1.000119053691683
1.0001190906004
1.000119159791797
1.000119252047106
1.00011935363644
1.00011944652727
1.000119508804902
1.000119515423052
1.000119439415335
1.000119253691147
1.00011893349733
1.000118800701095
1.000118844890151
1.000118929715629
1.000119048122044
1.000119189658783
1.000119340699576
1.000119484826588
1.000119603451195
1.000119676745098
1.000119684943003
1.000119610042324
1.000118585510471
1.000118634613481
1.000118730007179
1.000118866120707
1.000119034735887
1.000119225192317
1.00011942471859
1.000119618932259
1.00011979254877
1.000119930326672
1.000120018249386
1.000118416481337
1.000118468731976
1.000118570909825
1.000118718420482
1.000118904504112
1.000119120419512
1.000119355725907
1.000119598687724
1.000119836823489
1.000120057608851
1.000120249323855
1.000118300101605
1.000118354192944
1.000118460347642
1.00011861455956
1.000118810942907
1.000119041898427
1.000119298359039
1.000119570130555
1.00011984633866
1.000120115983877
1.000120368591166
1.000118240792135
1.000118295726269
1.000118403705385
1.000118560999175
1.00011876213038
1.000119000031062
1.000119266269447
1.00011955135875
1.000119845154898
1.000120137341639
1.000120417988758
1.000128721219282
1.000138209948297
1.000129099669844
1.000139448845226
1.000129542626816
1.000140920256661
1.00012999328808
1.000142563659466
1.000130376338769
1.000144298312191
1.000130596263486
1.000146020465276
1.000130536832092
1.000147602131194
1.000130062949147
1.000148892997207
1.000129026443837
1.000134869335646
1.000127473509913
1.000135177133534
1.000127618068443
1.000135785833945
1.00012789767145
1.000136681072298
1.000128292869721
1.00013783987134
1.000128773465129
1.000139229055012
1.000129297484963
1.000140803381024
1.000129810177766
1.000142503698761
1.000130243423528
1.000144255616969
1.000130516122968
1.000145969391542
1.000130536322113
1.000147541980768
1.000130205984072
1.0001335597138
1.000126676294731
1.000133842981741
1.000126819545734
1.000134403962651
1.000127098771062
1.00013523117005
1.000127499178396
1.00013630644308
1.000127998006609
1.000137603943391
1.000128563998836
1.000139089022583
1.000129156975375
1.000140717187519
1.000129727781694
1.000142433494862
1.00013021898211
1.00014417282301
1.000130566758087
1.000145861566758
1.000130704512471
1.000132355399581
1.00012593245807
1.000132615548111
1.000126072446425
1.000133131248303
1.000126346784842
1.000133893058614
1.000126744068107
1.000134886207903
1.000127246885738
1.000136089956705
1.000127831577956
1.000137476903667
1.00012846810836
1.000139012398519
1.000129120238848
1.000140654281505
1.000129746241299
1.00014235322567
1.00013030041521
1.000144053990896
1.000130735675121
1.000131280084188
1.000125259934529
1.000131519257355
1.000125395526453
1.000131993681337
1.000125662248547
1.000132695346928
1.000126051113029
1.000133611837905
1.000126548490585
1.000134725918831
1.000127136018564
1.000136015102939
1.000127790615988
1.000137451312363
1.000128484727285
1.000139000775212
1.000129186939573
1.000140624329718
1.000129863127901
1.000142278311424
1.000130478262318
1.000130353942671
1.000124674587173
1.000130574874511
1.000124805386015
1.000131013284123
1.000125063350198
1.000131662152445
1.000125441184581
1.000132510680422
1.0001259278843
1.000133544017793
1.000126508720006
1.000134742987808
1.000127165311863
1.000136083886013
1.000127875871049
1.000137538448942
1.000128615697757
1.000139074099481
1.000129358023014
1.000140654572586
1.000130075260712
1.000129593582137
1.000124189898197
1.00012979945785
1.000124316129499
1.000130208074376
1.000124565527319
1.000130813085258
1.000124931953435
1.00013160478438
1.000125406183531
1.000132569922746
1.000125975928708
1.000133691528339
1.000126625927884
1.000134948784684
1.000127338162466
1.000136317033567
1.00012809224805
1.000137767971972
1.000128866053451
1.000139270107812
1.000129636579336
1.000129012089503
1.000123816775336
1.000129206421674
1.000123939158883
1.000129592161086
1.000124181236005
1.000130163402819
1.000124537628161
1.000130911155537
1.000125000273314
1.000131823212634
1.000125558462946
1.000132884029666
1.000126198935925
1.000134074649762
1.000126906063742
1.000135372724173
1.000127662162339
1.000136752677172
1.000128447960461
1.000138186059154
1.000129243240824
1.000128619133057
1.000123563445366
1.000128805657001
1.00012368306545
1.000129175907069
1.000123919842076
1.000129724245212
1.000124268854394
1.000130442111115
1.000124722737621
1.000131317924866
1.000125271725869
1.000132336997543
1.000125903742478
1.000133481483182
1.000126604562983
1.000134730409254
1.000127358075276
1.000136059823487
1.000128146656584
1.000137443090518
1.000128951676508
1.000128421076641
1.000123435404743
1.000128603664201
1.000123553584225
1.000128966101416
1.000123787586056
1.000129502875917
1.000124132704159
1.000130205630156
1.000124581900096
1.000131063078511
1.000125125847602
1.000132060933178
1.000125753020122
1.000133181868277
1.0001264498421
1.000134405554948
1.000127200924099
1.000135708800359
1.000127989397033
1.000137065819652
1.000128797352005