/*--------------------------------*- C++ -*----------------------------------*\
  =========                 |
  \\      /  F ield         | OpenFOAM: The Open Source CFD Toolbox
   \\    /   O peration     | Website:  https://openfoam.org
    \\  /    A nd           | Version:  7
     \\/     M anipulation  |
\*---------------------------------------------------------------------------*/
FoamFile
{
    version     2.0;
    format      ascii;
    class       volScalarField;
    location    "0";
    object      p;
}
// * * * * * * * * * * * * * * * * * * * * * * * * * * * * * * * * * * * * * //

dimensions      [0 2 -2 0 0 0 0];

internalField   nonuniform List<scalar> 
12671
(
-5.495246746376312e-05
-4.290432781627096e-05
-3.250200255166481e-05
-2.366493596521287e-05
-1.628611190779426e-05
-1.02427373593247e-05
-5.403776863169448e-06
-1.634345522759952e-06
-6.78105651332091e-05
-5.412237155417637e-05
-4.215213389251415e-05
-3.184902310336559e-05
-2.312396650879573e-05
-1.586355672204751e-05
-9.940807349994064e-06
-5.222599619413404e-06
-1.573894455782378e-06
-6.604780000633602e-05
-5.245807325845749e-05
-4.06483394672176e-05
-3.054692517382411e-05
-2.204771226846389e-05
-1.502461675601862e-05
-9.342434529029694e-06
-4.864073472973289e-06
-1.454382186488953e-06
-7.873293620645842e-05
-6.338021154213833e-05
-4.995290997528084e-05
-3.839545637678735e-05
-2.86044845721996e-05
-2.044832292458987e-05
-1.378216693183974e-05
-8.458924101718361e-06
-4.336028189404159e-06
-1.278641041950828e-06
-9.245624201977856e-05
-7.50569897226375e-05
-5.978440690463771e-05
-4.660074677113246e-05
-3.540050796281374e-05
-2.603742065816657e-05
-1.834588850841602e-05
-1.215677605538183e-05
-7.307997792751441e-06
-3.650600123218878e-06
-1.051036669584106e-06
-8.787512681588763e-05
-7.035907963482885e-05
-5.523718199306946e-05
-4.240053515055453e-05
-3.167875723801982e-05
-2.287122894875807e-05
-1.577043226677497e-05
-1.017799112287476e-05
-5.914533481546058e-06
-2.824587962558153e-06
-7.775688422683552e-07
-8.216630850050994e-05
-6.459032219106603e-05
-4.972246085674153e-05
-3.736219685686786e-05
-2.725832522469334e-05
-1.914453307040129e-05
-1.276414088138367e-05
-7.885672178465542e-06
-4.311257941520217e-06
-1.879740160651943e-06
-4.65941247229885e-07
-7.524729734884147e-05
-5.771282933430436e-05
-4.323987897695047e-05
-3.151352258706122e-05
-2.218529733064077e-05
-1.491253391984443e-05
-9.383442001103647e-06
-5.33105281555967e-06
-2.539150844788135e-06
-8.428244595009992e-07
-1.255493574459072e-07
-6.705258938148388e-05
-4.971175586506349e-05
-3.581462699433824e-05
-2.490753695586466e-05
-1.652871609701552e-05
-1.02499833666108e-05
-5.70043602054055e-06
-2.577137392255289e-06
-6.472829441647015e-07
2.546860865997293e-07
2.326688641523458e-07
-5.755032299395398e-05
-4.060906701964164e-05
-2.750779394873618e-05
-1.762947574713144e-05
-1.038464097394036e-05
-5.252974457029445e-06
-1.803119020659521e-06
3.019789390895434e-07
1.308188537573537e-06
1.377468112924138e-06
5.965704876254141e-07
-4.676142416605477e-05
-3.047792852900813e-05
-1.842597151369582e-05
-9.802196129588212e-06
-3.878272259550253e-06
-3.87683671243698e-08
2.206162556755837e-06
-0.0001034345528566493
-8.674274750134075e-05
-7.147005716452369e-05
-5.772226720339172e-05
-4.553581270408741e-05
-3.489217972458284e-05
-2.573167859962826e-05
-1.796552825014277e-05
-1.148560766330657e-05
-6.171561807546962e-06
-1.89518894800967e-06
-0.0001027588143413099
-8.601001278822518e-05
-7.072825893200581e-05
-5.70102073438667e-05
-4.488296187969695e-05
-3.431939802357239e-05
-2.525254103291204e-05
-1.758798146277101e-05
-1.121374624366894e-05
-6.007375591713598e-06
-1.84018504586464e-06
-0.0001013896615787207
-8.453204719055548e-05
-6.92373127669592e-05
-5.558330352869239e-05
-4.357811238629375e-05
-3.317722432015559e-05
-2.429906503268084e-05
-1.68380345498503e-05
-1.067457761106197e-05
-5.682172776960566e-06
-1.73132656461912e-06
-9.92929691477636e-05
-8.228521336877859e-05
-6.698386521100877e-05
-5.343721677218378e-05
-4.162401203840195e-05
-3.147326493576232e-05
-2.288145983421692e-05
-1.572639832955703e-05
-9.877468210066769e-06
-5.202427133497995e-06
-1.570952882986298e-06
-9.642073026488139e-05
-7.923750743093741e-05
-6.395126665247397e-05
-5.0568487670613e-05
-3.90273401975703e-05
-2.922093131762026e-05
-2.101649856978558e-05
-1.427012085592285e-05
-8.837063689293289e-06
-4.578153933474206e-06
-1.362663845062435e-06
-9.271518206998231e-05
-7.535286125934827e-05
-6.012365133094e-05
-4.697811083373308e-05
-3.580162115458623e-05
-2.644165159420839e-05
-1.872907480516354e-05
-1.249359127620858e-05
-7.573867084210032e-06
-3.823187527471996e-06
-1.111398157210774e-06
-8.81147600692355e-05
-7.059707919469647e-05
-5.549135406020014e-05
-4.267610942760106e-05
-3.197081328260843e-05
-2.316748027603914e-05
-1.605394458078583e-05
-1.042958690003382e-05
-6.114784697257047e-06
-2.955408688055885e-06
-8.234886774915909e-07
-8.256214041447401e-05
-6.494544323727231e-05
-5.005752081278362e-05
-3.768685051356532e-05
-2.757325758058597e-05
-1.944378200131228e-05
-1.303735792628241e-05
-8.120118257262557e-06
-4.493457783758234e-06
-1.996809556224915e-06
-5.066565038053073e-07
-7.601450550262473e-05
-5.839185082253121e-05
-4.3845588372092e-05
-3.205467433468988e-05
-2.266553134794924e-05
-1.533156237550877e-05
-9.738214160409767e-06
-5.616784392751883e-06
-2.750175334584285e-06
-9.732739699048361e-07
-1.699031207283736e-07
-6.845589425556341e-05
-5.095906209359386e-05
-3.690705081980727e-05
-2.584920726857682e-05
-1.73256106019011e-05
-1.090893310485507e-05
-6.228333707585319e-06
-2.980338962210166e-06
-9.311675088955237e-07
8.604067308174727e-08
1.767362157196457e-07
-5.991104342470616e-05
-4.270923172182796e-05
-2.932862174801349e-05
-1.916952374699361e-05
-1.165463545017571e-05
-6.271163116962256e-06
-2.591452623347551e-06
-2.792063694467663e-07
9.128767503135743e-07
-0.0001055488548749657
-8.914763099043773e-05
-7.401451605667396e-05
-6.026982731139969e-05
-4.796830342421307e-05
-3.711104519933232e-05
-2.765730861062417e-05
-1.953514258634319e-05
-1.265021395869017e-05
-6.892455465711957e-06
-2.140399412526654e-06
-0.0001050049852026664
-8.854362669460113e-05
-7.339207109528223e-05
-5.96635870336545e-05
-4.740545054647069e-05
-3.661167762258111e-05
-2.723536674497484e-05
-1.919966568474257e-05
-1.240674578268153e-05
-6.74446487166489e-06
-2.090621185938469e-06
-0.0001039042644174589
-8.732654796325603e-05
-7.214201622098686e-05
-5.844942361588237e-05
-4.628084558849818e-05
-3.561598509077922e-05
-2.639558902766615e-05
-1.853304246702347e-05
-1.192361284085597e-05
-6.451120405911756e-06
-1.992018998409035e-06
-0.0001022217567699864
-8.547935396702747e-05
-7.025509426198896e-05
-5.662494102973399e-05
-4.459750863271467e-05
-3.413069951168502e-05
-2.5146664573347e-05
-1.754425983241757e-05
-1.120862303687134e-05
-6.017800115365438e-06
-1.846532965482548e-06
-9.992269745933769e-05
-8.297926629805267e-05
-6.772010160012315e-05
-5.418894290105786e-05
-4.236197157415673e-05
-3.216748225749209e-05
-2.35027659695175e-05
-1.624756434542799e-05
-1.027395314549804e-05
-5.452808303280079e-06
-1.657143788531837e-06
-9.696584344972875e-05
-7.980118854797337e-05
-6.452709313746954e-05
-5.114422363642967e-05
-3.958654770854812e-05
-2.974464693574314e-05
-2.148476348593956e-05
-1.466324698602838e-05
-9.136601746482651e-06
-4.767593174792765e-06
-1.427934189177512e-06
-9.330820173638156e-05
-7.592235116983771e-05
-6.06715899018082e-05
-4.750111295910451e-05
-3.629211450872222e-05
-2.688918862157616e-05
-1.912158604403119e-05
-1.281846648485946e-05
-7.818822091552651e-06
-3.976929000244235e-06
-1.164133656903396e-06
-8.891125884519445e-05
-7.132815708016577e-05
-5.615964964971396e-05
-4.328156035754577e-05
-3.251116244216957e-05
-2.363887215089156e-05
-1.645150556005531e-05
-1.074792733226548e-05
-6.348399021934974e-06
-3.098979271979149e-06
-8.721182045827345e-07
-8.374873107016176e-05
-6.601907535347794e-05
-5.101353032851115e-05
-3.852342879540487e-05
-2.829076769743856e-05
-2.004406198126834e-05
-1.352307433470236e-05
-8.494200376015763e-06
-4.758619337243307e-06
-2.155151093352038e-06
-5.593352573189275e-07
-7.781565235371949e-05
-6.001822943231447e-05
-4.527750150912409e-05
-3.32845318117444e-05
-2.36950541431777e-05
-1.616892194904284e-05
-1.039542080267962e-05
-6.10746936499305e-06
-3.087790608099607e-06
-1.169658563737058e-06
-2.341271333580048e-07
-7.113830506180353e-05
-5.33790601309921e-05
-3.902315949356442e-05
-2.764581991862663e-05
-1.880664499676225e-05
-1.209159713221134e-05
-7.137624713551309e-06
-3.644518444340287e-06
-1.37819742331608e-06
-1.68738677640826e-07
9.456374635601544e-08
-0.000107403196540539
-9.127849019184541e-05
-7.628565227781217e-05
-6.255687723920942e-05
-5.016246886864915e-05
-3.912059697053211e-05
-2.940729381234941e-05
-2.096574790095389e-05
-1.37142414947752e-05
-7.552334723992748e-06
-2.365109879883216e-06
-0.0001069710412273923
-9.078483877270257e-05
-7.576662600300215e-05
-6.2043264504069e-05
-4.967917387753612e-05
-3.868675930206074e-05
-2.903689733361357e-05
-2.066854453670324e-05
-1.349683996658088e-05
-7.419335342577549e-06
-2.320195615236634e-06
-0.0001060973341865542
-8.97911145052884e-05
-7.472512084187366e-05
-6.101523661057696e-05
-4.871389995458722e-05
-3.782186958257178e-05
-2.82996737233694e-05
-2.007782782493168e-05
-1.306524665397325e-05
-7.155550184566117e-06
-2.231166190323356e-06
-0.0001047641272828064
-8.828535771626999e-05
-7.315508149127595e-05
-5.947195085351249e-05
-4.726991971177182e-05
-3.653200407169632e-05
-2.720313406466271e-05
-1.920123208585714e-05
-1.242603803677968e-05
-6.765488056481086e-06
-2.099644414988989e-06
-0.0001029466500672931
-8.625185123057275e-05
-7.104954114222825e-05
-5.741402205477341e-05
-4.535370541866131e-05
-3.482749686537928e-05
-2.575943373468199e-05
-1.805080734487456e-05
-1.158944239376308e-05
-6.256097699530428e-06
-1.928119615711784e-06
-0.0001006159927262163
-8.367381624120129e-05
-6.840312673344685e-05
-5.484569545460813e-05
-4.29766939732525e-05
-3.272428100718221e-05
-2.398632002954859e-05
-1.664363400112068e-05
-1.056969604540134e-05
-5.636939611528261e-06
-1.719996238658675e-06
-9.774281617629373e-05
-8.053702104433363e-05
-6.521531332833335e-05
-5.17775859958522e-05
-4.015744151794245e-05
-3.024546604982088e-05
-2.190819671204211e-05
-1.500247233682041e-05
-9.38538883409795e-06
-4.920333745725319e-06
-1.479630734937948e-06
-9.430213012363205e-05
-7.683424699761362e-05
-6.149429861812631e-05
-4.822980957213845e-05
-3.692397486494596e-05
-2.742296324731959e-05
-1.955713697811721e-05
-1.315630906860614e-05
-8.059697479702248e-06
-4.121420995858434e-06
-1.212335733712013e-06
-9.027909545318948e-05
-7.257046060967378e-05
-5.726127511498658e-05
-4.423524973857315e-05
-3.331608122751562e-05
-2.429892155299571e-05
-1.697364449631417e-05
-1.11406442969434e-05
-6.620395831342589e-06
-3.258072473515463e-06
-9.24329583035235e-07
-8.567566028191706e-05
-6.776840078178046e-05
-5.255475897218849e-05
-3.984261327303149e-05
-2.938721722182389e-05
-2.092670319401714e-05
-1.420694786686626e-05
-8.997361076237178e-06
-5.099536419342522e-06
-2.350586765493969e-06
-6.226119895487689e-07
-8.051762774060811e-05
-6.247411448958956e-05
-4.743450548913784e-05
-3.511884723125855e-05
-2.520567953405496e-05
-1.737112118514559e-05
-1.131462827111559e-05
-6.774044336594071e-06
-3.53272311405462e-06
-1.421134357388363e-06
-3.147535941063766e-07
-0.000108987510565257
-9.311692247966409e-05
-7.825868941908699e-05
-6.455443832124783e-05
-5.208735988815675e-05
-4.089008207979645e-05
-3.095308669198662e-05
-2.223279633053506e-05
-1.465869443155715e-05
-8.139062864315622e-06
-2.565115016463405e-06
-0.000108647715644032
-9.271553712571014e-05
-7.782700663615372e-05
-6.411979575312691e-05
-5.167250873610563e-05
-4.051311884506565e-05
-3.062781464527865e-05
-2.196938069181684e-05
-1.446448789193842e-05
-8.019497931519673e-06
-2.524580208744938e-06
-0.0001079613927060984
-9.190833310894119e-05
-7.696148713298874e-05
-6.325038410051403e-05
-5.084429310492356e-05
-3.976178482253874e-05
-2.998042799565511e-05
-2.14457438682507e-05
-1.407882307638129e-05
-7.782251841889585e-06
-2.444188597845093e-06
-0.0001069157604055843
-9.068714811500998e-05
-7.565849408397783e-05
-6.194654863747493e-05
-4.960618772817845e-05
-3.864165992234018e-05
-2.901753305570977e-05
-2.066847402362155e-05
-1.350731970031382e-05
-7.431156218764126e-06
-2.325315506784354e-06
-0.0001054933784091226
-8.904150140131408e-05
-7.391423647341639e-05
-6.021027809262774e-05
-4.79646262067981e-05
-3.716206705013534e-05
-2.774973471466037e-05
-1.964792280395147e-05
-1.275869316810277e-05
-6.972104637345072e-06
-2.17006736138659e-06
-0.000103674271987887
-8.696070682199394e-05
-7.172672203728396e-05
-5.804689489949094e-05
-4.593037436406047e-05
-3.533711792648225e-05
-2.619237815565295e-05
-1.83986888564601e-05
-1.184503648614408e-05
-6.413189438932995e-06
-1.981320565834394e-06
-0.0001014388167421413
-8.443666280454076e-05
-6.909826842696029e-05
-5.546717073402951e-05
-4.352019945649317e-05
-3.31869415842066e-05
-2.436638395962252e-05
-1.69401325030786e-05
-1.078209786155909e-05
-5.764822704972399e-06
-1.762752328198275e-06
-9.877137611070129e-05
-8.146724982418037e-05
-6.603845719563834e-05
-5.248972496711059e-05
-4.075868406201946e-05
-3.073895056935405e-05
-2.229904873507344e-05
-1.529681775197906e-05
-9.589477983507152e-06
-5.039795012142786e-06
-1.518847797114187e-06
-9.566461802613027e-05
-7.806019524088185e-05
-6.256734812784042e-05
-4.91435057528858e-05
-3.767998760118775e-05
-2.802896657766855e-05
-2.002466146138334e-05
-1.349876494281658e-05
-8.290664518127423e-06
-4.253223049003996e-06
-1.254867292343429e-06
-9.21243319046551e-05
-7.423716828546918e-05
-5.871869067568958e-05
-4.547009300283553e-05
-3.432931842050268e-05
-2.510200504386913e-05
-1.758477712574095e-05
-1.158139755638804e-05
-6.912825830308356e-06
-3.422341947288998e-06
-9.767594267456953e-07
-8.817442537684627e-05
-7.003775223940326e-05
-5.454278577165337e-05
-4.152551134111444e-05
-3.076385623659435e-05
-2.201251632280465e-05
-1.502800103300196e-05
-9.585084986796282e-06
-5.486304450098066e-06
-2.566111904480003e-06
-6.910110357892909e-07
-0.0001102989134004239
-9.46524497271046e-05
-7.991702863045055e-05
-6.624153428177075e-05
-5.371950141340325e-05
-4.239541956969439e-05
-3.227181023495164e-05
-2.331627222376982e-05
-1.546788099916193e-05
-8.642518816511075e-06
-2.736888969593523e-06
-0.000110033299971074
-9.432594090003429e-05
-7.955687920615143e-05
-6.587211775966198e-05
-5.336163944550959e-05
-4.206618205030468e-05
-3.198469030870332e-05
-2.308163119953152e-05
-1.529356231984699e-05
-8.534541751211523e-06
-2.70014651720831e-06
-0.0001094972621174783
-9.366993659656787e-05
-7.883537804485296e-05
-6.513365584614527e-05
-5.264752668649279e-05
-4.141015215617901e-05
-3.141329529720712e-05
-2.261516676889842e-05
-1.494732154891083e-05
-8.320219688011211e-06
-2.627247144707979e-06
-0.0001086817290004576
-9.267902412172481e-05
-7.775065113221655e-05
-6.402736222327072e-05
-5.158078003416144e-05
-4.043253113257308e-05
-3.056354465725957e-05
-2.192267164576344e-05
-1.443404947787477e-05
-8.002867641009839e-06
-2.519377269784339e-06
-0.0001075744788668147
-9.134648056309037e-05
-7.630119844783522e-05
-6.255621310304602e-05
-5.016778422145788e-05
-3.914187028970078e-05
-2.944486578406363e-05
-2.101320618810287e-05
-1.376130924426384e-05
-7.587574565542076e-06
-2.378351201021782e-06
-0.000106161813176372
-8.966592782959518e-05
-7.448741940285665e-05
-6.072626705904454e-05
-4.841876594098063e-05
-3.755089162756839e-05
-2.807077877870972e-05
-1.989948194522783e-05
-1.293956161259079e-05
-7.08131356420174e-06
-2.206642647724688e-06
-0.0001044307918653798
-8.763348957004162e-05
-7.231355475444725e-05
-5.854830489546857e-05
-4.634909324225023e-05
-3.567744999937399e-05
-2.645955589696431e-05
-1.8598272582432e-05
-1.198238998048836e-05
-6.493041973141524e-06
-2.007410767614154e-06
-0.0001023719966279506
-8.52503768639417e-05
-6.978994345708008e-05
-5.603967265676477e-05
-4.39806802816498e-05
-3.354552401514853e-05
-2.46348573347747e-05
-1.713077290280592e-05
-1.090666735843399e-05
-5.833756227770423e-06
-1.78450894863302e-06
-9.998273806830266e-05
-8.252577727434791e-05
-6.693544435554824e-05
-5.322616948082989e-05
-4.134334493790662e-05
-3.11860993089315e-05
-2.262622946215039e-05
-1.552281756330708e-05
-9.732603007656484e-06
-5.116464633703662e-06
-1.542464125151022e-06
-9.727054811372319e-05
-7.9479854486793e-05
-6.377981730296162e-05
-5.01437809556601e-05
-3.847593987558028e-05
-2.863779306659431e-05
-2.046934618411949e-05
-1.380487166621712e-05
-8.483609842527216e-06
-4.356044682026588e-06
-1.286415902281748e-06
-9.425670472797994e-05
-7.614658968522276e-05
-6.036580406837935e-05
-4.684002602254706e-05
-3.54270636398658e-05
-2.594706880211277e-05
-1.820588323523652e-05
-1.201171872803664e-05
-7.185947004868941e-06
-3.56896136564939e-06
-1.022008412232916e-06
-0.0001113392890290697
-9.588035459566722e-05
-8.125041223622242e-05
-6.760371610497145e-05
-5.504177628693781e-05
-4.361841231229302e-05
-3.33457469778425e-05
-2.420039677740064e-05
-1.612926942638114e-05
-9.054544577645267e-06
-2.87757495985363e-06
-0.000111130991354823
-9.561222875528927e-05
-8.094648548940548e-05
-6.728594114552043e-05
-5.472934670457776e-05
-4.332747413786988e-05
-3.30894383177472e-05
-2.398913442458205e-05
-1.597119972186694e-05
-8.956081324216343e-06
-2.843955985514808e-06
-0.0001107109255753356
-9.507400557092383e-05
-8.033810001398801e-05
-6.665111225141632e-05
-5.410618231237729e-05
-4.274793071807212e-05
-3.257943360537227e-05
-2.356914823266793e-05
-1.565719646365521e-05
-8.760600438025776e-06
-2.777235068937995e-06
-0.0001100725958950622
-9.426219170794776e-05
-7.94246158336836e-05
-6.57010475433486e-05
-5.317598742282726e-05
-4.188469634934786e-05
-3.182114209493487e-05
-2.29456417742069e-05
-1.519161067630737e-05
-8.471034324119651e-06
-2.678458720829438e-06
-0.0001092073700940701
-9.317266188527491e-05
-7.820611679762453e-05
-6.443939364776625e-05
-5.194508243564147e-05
-4.074574055789088e-05
-3.082311662076308e-05
-2.212671895621325e-05
-1.458115225320507e-05
-8.091876085820261e-06
-2.549224938949162e-06
-0.0001081058059437663
-9.180196661379683e-05
-7.668461522298169e-05
-6.287266921402467e-05
-5.042325539666816e-05
-3.934274135881756e-05
-2.959752164536245e-05
-2.112369311367502e-05
-1.383507299021255e-05
-7.629269863111879e-06
-2.391709220301445e-06
-0.000106759395034386
-9.014901542147223e-05
-7.486557039018094e-05
-6.101155179626014e-05
-4.862478686238424e-05
-3.76918492062153e-05
-2.816066138256933e-05
-1.995141982607668e-05
-1.296535158697956e-05
-7.091094785014963e-06
-2.208686850317337e-06
-0.0001051626786936824
-8.821706408231904e-05
-7.275963180523244e-05
-5.887231070638194e-05
-4.656955098245644e-05
-3.581447185393914e-05
-2.653349054203831e-05
-1.862859144746866e-05
-1.198683566459399e-05
-6.487015319794835e-06
-2.003542341041359e-06
-0.0001033156516378081
-8.601589531090301e-05
-7.03844824001683e-05
-5.64782581980828e-05
-4.428407196035028e-05
-3.373797311241312e-05
-2.474201881687964e-05
-1.717792456914434e-05
-1.091729241056744e-05
-5.828469448085424e-06
-1.78025658166827e-06
-0.0001012263163164317
-8.356403529614296e-05
-6.776661842985605e-05
-5.386106293387379e-05
-4.180239646877817e-05
-3.149616837382789e-05
-2.281751656399636e-05
-1.56261721453171e-05
-9.777321949829661e-06
-5.128568608120726e-06
-1.543363319150366e-06
-9.891318831021161e-05
-8.089079831365806e-05
-6.494286739924274e-05
-5.106174873456812e-05
-3.916663406766722e-05
-2.912950065306945e-05
-2.079643604775076e-05
-1.400390169587483e-05
-8.590097088498668e-06
-4.401890384721441e-06
-1.297869197008144e-06
-0.00011211306360615
-9.679963242269202e-05
-8.225313287771026e-05
-6.863157350761163e-05
-5.604225156295463e-05
-4.45458734492652e-05
-3.4161730862258e-05
-2.487323832322989e-05
-1.663326502247584e-05
-9.36883970301869e-06
-2.984956049263701e-06
-0.0001119464761670271
-9.657431586252727e-05
-8.199070170382159e-05
-6.835214026736959e-05
-5.576374193594177e-05
-4.428368133940618e-05
-3.392866491724335e-05
-2.467969606375629e-05
-1.648756543528216e-05
-9.27764660441232e-06
-2.953729785998731e-06
-0.0001116107209822443
-9.61223880660819e-05
-8.146575482730151e-05
-6.779422675894346e-05
-5.520846871721329e-05
-4.376154750656001e-05
-3.346498068794376e-05
-2.429495302203755e-05
-1.619811885585292e-05
-9.096574700423488e-06
-2.891746058060502e-06
-0.0001111010040384517
-9.54416287702899e-05
-8.067847060636024e-05
-6.696004702142074e-05
-5.438018212524996e-05
-4.29841769082627e-05
-3.277572520970856e-05
-2.372379685833801e-05
-1.576889587324427e-05
-8.828286901467713e-06
-2.799952865892272e-06
-0.0001104110451668489
-9.452961877530388e-05
-7.962996906761271e-05
-6.585367343367479e-05
-5.328513282694709e-05
-4.195911794153541e-05
-3.186883072379288e-05
-2.297365617928798e-05
-1.520600490712379e-05
-8.476856571536724e-06
-2.67979589226411e-06
-0.0001095341525150726
-9.338479885800903e-05
-7.832328828219408e-05
-6.448188435941192e-05
-5.193276597032894e-05
-4.069729723471876e-05
-3.075549999768532e-05
-2.20548567396485e-05
-1.451784514196458e-05
-8.047843670669787e-06
-2.533240578103929e-06
-0.0001084646157032965
-9.200781720739018e-05
-7.676460368739697e-05
-6.285520181610932e-05
-5.033655199407425e-05
-3.921364306732119e-05
-2.94506408810696e-05
-2.098089819524893e-05
-1.371526249197478e-05
-7.54836679395616e-06
-2.362791578134961e-06
-0.0001071993676443162
-9.040309747076006e-05
-7.49646112884783e-05
-6.098903590390979e-05
-4.851487304167507e-05
-3.752772339605639e-05
-2.797328680879764e-05
-1.97687010406962e-05
-1.281167224126241e-05
-6.987149171502627e-06
-2.171502257157572e-06
-0.0001057398346851639
-8.858052961088455e-05
-7.293996849485369e-05
-5.890482976391606e-05
-4.649186573714706e-05
-3.56643112680296e-05
-2.634693111956294e-05
-1.843876803679885e-05
-1.182310923039748e-05
-6.374515552523166e-06
-1.962966614177518e-06
-0.0001040938567836444
-8.655715199155204e-05
-7.071465883700652e-05
-5.663107847700936e-05
-4.429810772007677e-05
-3.365378309365567e-05
-2.459970036263745e-05
-1.701520475159764e-05
-1.076816822432973e-05
-5.722318710058952e-06
-1.741286783936699e-06
-0.0001022775172535992
-8.435865947699741e-05
-6.832112320292578e-05
-5.420408156995824e-05
-4.197103007648356e-05
-3.153225643109016e-05
-2.276429709739402e-05
-1.552555104181202e-05
-9.667804119615963e-06
-5.043779442346938e-06
-1.511011172373362e-06
-0.0001126253056835512
-9.741120619518563e-05
-8.292243858491695e-05
-6.931937761118007e-05
-5.671307912929213e-05
-4.516878169071022e-05
-3.471053569894305e-05
-2.532630050884903e-05
-1.697295915981781e-05
-9.580832810984483e-06
-3.057416960447799e-06
-0.000112485885155097
-9.721393107177374e-05
-8.268732088925445e-05
-6.906529308638524e-05
-5.64570868365206e-05
-4.492574624540301e-05
-3.449301583807984e-05
-2.514465136960043e-05
-1.683558813394307e-05
-9.494547791791436e-06
-3.027808824691706e-06
-0.000112205002432106
-9.681849671466231e-05
-8.221727224502138e-05
-6.855821633770249e-05
-5.594687626978911e-05
-4.444187086377389e-05
-3.40603177444104e-05
-2.478356875412947e-05
-1.656268172632015e-05
-9.323208451835447e-06
-2.9690306637897e-06
-0.0001117788892105661
-9.622345161801602e-05
-8.151296415666441e-05
-6.780059640588144e-05
-5.518621735730805e-05
-4.372172245748151e-05
-3.341725573939115e-05
-2.424757474589344e-05
-1.615796811786432e-05
-9.069306149316628e-06
-2.881967800512387e-06
-0.0001112026726341634
-9.542739785126709e-05
-8.057613318243601e-05
-6.679675034519109e-05
-5.418130164235902e-05
-4.277257387329334e-05
-3.257136360725043e-05
-2.354366670215754e-05
-1.562717240123553e-05
-8.736647005494678e-06
-2.767968991317812e-06
-0.0001104712865434362
-9.442988985071263e-05
-7.941041101279085e-05
-6.555358559660116e-05
-5.294133563415813e-05
-4.1604862928932e-05
-3.153322693320542e-05
-2.268153949982919e-05
-1.497815013097358e-05
-8.33041887326119e-06
-2.628865951620024e-06
-0.0001095806399243192
-9.323256742530855e-05
-7.802235303670201e-05
-6.408147874536995e-05
-5.147924769583951e-05
-4.023272584081144e-05
-3.031685748109157e-05
-2.167382599755993e-05
-1.42210243085325e-05
-7.857255471488676e-06
-2.466990897932902e-06
-0.0001085289913549226
-9.18404584981805e-05
-7.642259330166112e-05
-6.239523657887559e-05
-4.981243736019275e-05
-3.867454084380599e-05
-2.894005508038191e-05
-2.053631251213929e-05
-1.33682947202054e-05
-7.32527898156475e-06
-2.285185859812325e-06
-0.0001073184535571461
-9.026336292842998e-05
-7.462703184600801e-05
-6.051504679239502e-05
-4.796348127680427e-05
-3.695340699712524e-05
-2.742469516293828e-05
-1.928808160815664e-05
-1.243488613779054e-05
-6.744101366554681e-06
-2.086797255285555e-06
-0.0001059565232877724
-8.851720302643928e-05
-7.265793936343801e-05
-5.846731008842046e-05
-4.596069970324499e-05
-3.509747746746635e-05
-2.579687791584298e-05
-1.795153465448349e-05
-1.143810318591835e-05
-6.12476603927866e-06
-1.875649798868761e-06
-0.0001044575017126838
-8.662520244275908e-05
-7.054484748400758e-05
-5.628523585788227e-05
-4.383848404039638e-05
-3.314006787684754e-05
-2.408687934947112e-05
-1.655225228050272e-05
-1.039746515865504e-05
-5.479615494661787e-06
-1.655995294034581e-06
-0.0001128802416933119
-9.771650987872938e-05
-8.325724688215017e-05
-6.966396825343056e-05
-5.704957790681441e-05
-4.548156143285733e-05
-3.498634134325768e-05
-2.555415248226336e-05
-1.714389624427303e-05
-9.687557820176046e-06
-3.093906201236922e-06
-0.0001127542064150925
-9.753309966747228e-05
-8.303567478191912e-05
-6.942248893703965e-05
-5.680481093275674e-05
-4.524809849471499e-05
-3.477660712010005e-05
-2.537847196229417e-05
-1.701071287739748e-05
-9.603744616166614e-06
-3.065113836680539e-06
-0.0001125003471395537
-9.716558816707861e-05
-8.259284473586926e-05
-6.894068752738499e-05
-5.631706298946986e-05
-4.478334060777151e-05
-3.435942836819373e-05
-2.502926527371323e-05
-1.674612489653656e-05
-9.437308273382332e-06
-3.007952306881833e-06
-0.0001121153759405714
-9.661288417617366e-05
-8.192965885603784e-05
-6.82211215763212e-05
-5.559011028740543e-05
-4.409178585144948e-05
-3.373950547790063e-05
-2.451092507838213e-05
-1.635374255322637e-05
-9.190656759849062e-06
-2.92327648028066e-06
-0.0001115950757526894
-9.587406547843096e-05
-8.104813934003012e-05
-6.726821825928575e-05
-5.463011054046041e-05
-4.318057044157686e-05
-3.292417726079773e-05
-2.383023856351127e-05
-1.583910442673701e-05
-8.867466271129225e-06
-2.812388010225361e-06
-0.0001109351315427177
-9.494919935013751e-05
-7.995218716735977e-05
-6.608893568644524e-05
-5.344614725072508e-05
-4.205989082737827e-05
-3.192372742379999e-05
-2.299659308162807e-05
-1.52098014708036e-05
-8.472743689847544e-06
-2.677053604837583e-06
-0.0001101321892368944
-9.384037121531658e-05
-7.864851788598943e-05
-6.469356434500141e-05
-5.205087623724157e-05
-4.074349319893126e-05
-3.075172948920576e-05
-2.202219877153278e-05
-1.447560460858523e-05
-8.012886770529971e-06
-2.51952160139405e-06
-0.000109185091163822
-9.255285898838523e-05
-7.714770596974078e-05
-6.30965991070489e-05
-5.046120816461411e-05
-3.924917091645257e-05
-2.942537981315998e-05
-2.092228836512323e-05
-1.364856728962443e-05
-7.495724874245949e-06
-2.342531116732923e-06
-0.0001080962148440398
-9.109636920072309e-05
-7.546524976975773e-05
-6.131759573889155e-05
-4.8698947742112e-05
-3.7599200684308e-05
-2.796576172148336e-05
-1.971525026912972e-05
-1.274307219122708e-05
-6.930522091982636e-06
-2.149307787363687e-06
-0.0001068728173729828
-8.948622906551954e-05
-7.362255113352024e-05
-5.938191246637524e-05
-4.679130136581774e-05
-3.582064331577296e-05
-2.639798184213063e-05
-1.842265107533962e-05
-1.177579230162166e-05
-6.327925740519117e-06
-1.943540602722647e-06
-0.0001055282631810895
-8.774440918757471e-05
-7.164769024609781e-05
-5.732122950200508e-05
-4.4771162431193e-05
-3.394543628547999e-05
-2.475112356422991e-05
-1.70691086082e-05
-1.076554138110334e-05
-5.699846666203257e-06
-1.729335611999742e-06
-0.0001077924265915085
-0.0001025511237757875
-9.606602197780725e-05
-8.821470004061041e-05
-7.890016319430103e-05
-6.807378142631878e-05
-0.0001213565130409384
-0.0001207933414935814
-0.0001196448386587786
-0.000117867632945362
-0.0001153991978945721
-0.0001121613301471765
-0.0001080654830807819
-0.0001030204561769124
-9.694290156789996e-05
-8.977090426872072e-05
-8.148045357318591e-05
-0.000123021369771467
-0.0001225849000367579
-0.0001216956013588379
-0.0001203216009112952
-0.0001184173079050394
-0.0001159263573058626
-0.0001127859674744714
-0.0001089329979949979
-0.0001043119368414939
-9.888487507874393e-05
-9.264320891415103e-05
-0.0001244572822360039
-0.00012412666206605
-0.000123453438645516
-0.0001224143711241728
-0.0001209764757773034
-0.0001190994493197549
-0.0001167391526791449
-0.000113852303810753
-0.0001104024692394743
-0.0001063673096415515
-0.0001017468100689968
-0.0001256641125135516
-0.0001254198297288725
-0.0001249224969200571
-0.0001241551842902589
-0.0001230940457098058
-0.0001217102723459365
-0.0001199728319658309
-0.0001178520576779912
-0.0001153240971680507
-0.0001123761322378739
-0.000109012123547155
-0.000126647646524257
-0.0001264718352192481
-0.0001261137446016307
-0.0001255609340809051
-0.0001247960002426188
-0.0001237981327822129
-0.0001225452491166825
-0.0001210167218635881
-0.0001191966696041035
-0.0001170777072838479
-0.0001146649478207623
-0.0001274170410354016
-0.0001272935364003654
-0.0001270416504448183
-0.0001266520342135918
-0.0001261116829822993
-0.000125405175791216
-0.0001245163435027022
-0.0001234303523815455
-0.0001221361552063159
-0.0001206292085472409
-0.000118914284720729
-0.0001279825339371928
-0.0001278967324758006
-0.0001277213032597908
-0.0001274489287769407
-0.000127069471443785
-0.0001265709796362902
-0.0001259410190464052
-0.0001251683026041733
-0.000124244564350251
-0.0001231665838993717
-0.0001219382207340683
-0.0001283535298394708
-0.0001282921077819225