/*--------------------------------*- C++ -*----------------------------------*\
  =========                 |
  \\      /  F ield         | OpenFOAM: The Open Source CFD Toolbox
   \\    /   O peration     | Website:  https://openfoam.org
    \\  /    A nd           | Version:  7
     \\/     M anipulation  |
\*---------------------------------------------------------------------------*/
FoamFile
{
    version     2.0;
    format      ascii;
    class       volScalarField;
    location    "0";
    object      Phi;
}
// * * * * * * * * * * * * * * * * * * * * * * * * * * * * * * * * * * * * * //

dimensions      [0 2 -1 0 0 0 0];

internalField   nonuniform List<scalar> 
12671
(
10.00066833537716
8.667228777383624
7.333796467661217
6.00037036417057
4.666949380298631
3.333532400176016
2.000118289797131
0.6667059047233651
11.33410824558779
10.00066121947939
8.667222499418507
7.33379108640243
6.000365920907469
4.666945902786779
3.333529906132095
2.000116789757598
0.6667054041512523
11.33409246962342
10.00064697265674
8.667209939133166
7.333780326806354
6.00035704143263
4.66693895621468
3.333524925694152
2.000113794919313
0.6667044048629235
12.66752164245831
11.33406874020951
10.00062557147175
8.667191093615635
7.333764199618609
6.000343743827091
4.666928560543194
3.333517476319482
2.000109317045984
0.6667029109952822
14.00094844623209
12.66748712673604
11.33403699946887
10.0005969974475
8.667165973043168
7.3337427332052
6.000326065116258
4.666914753303788
3.333507589538385
2.000103376953797
0.6667009298041812
14.00090209216714
12.66744374236808
11.33399720539466
10.0005612573995
8.667134618215611
7.333715988172614
6.000304072993823
4.666897598522216
3.333495317203591
2.000096008206047
0.6666984728860155
14.00084600167491
12.66739142100968
11.33394936316737
10.00051841089806
8.667097123914765
7.333684076611177
6.000277881092236
4.666877198240461
3.333480739506208
2.000087261829593
0.6666955577338505
14.00078008679163
12.66733017646755
11.3338935652932
10.0004686047975
8.667053667767718
7.333647185503684
6.000247667306206
4.666853706185376
3.333463974398466
2.000077211825187
0.6666922095495085
14.00070439419537
12.66726016118756
11.33383004042167
10.00041211427512
8.667004543826231
7.333605603432193
6.000213694337246
4.666827342866202
3.333445187879685
2.00006596113258
0.666688463196847
14.00061918301394
12.66718173346554
11.33375920978729
10.00034938899318
8.666950199363018
7.333559749133336
6.000176331171486
4.666798411050937
3.333424604372357
2.000053647579704
0.6666843651383155
14.00052501568642
12.66709553329114
11.33368174877736
10.00028110179014
8.666891272418857
7.333510199709677
6.000136073655439
14.00106926425758
12.66760127127725
11.33414263539061
10.00069266265444
8.667250537575729
7.333815350694608
6.000386122250572
4.66696182168296
3.333541383105126
2.00012371718053
0.6667077200340046
14.00106132694123
12.6675937635735
11.33413568031286
10.00068635875562
8.667244961388221
7.333810559772275
6.000382158428875
4.666958714248365
3.333539151639127
2.000122373911058
0.6667072715820153
14.00104541472134
12.6675787248321
11.33412175911206
10.00067374972078
8.667233814872514
7.333800988178366
6.000374242914686
4.666952511200244
3.333534698450856
2.000119693743699
0.6667063768899202
14.00102145951297
12.66755611516664
11.33410085597594
10.00065483870937
8.667217114646412
7.333786660534398
6.000362403297005
4.666943238733997
3.333528044826449
2.000115690489389
0.6667050407353949
14.0009893772503
12.66752589192434
11.33407296300611
10.00062964458897
8.667194897871589
7.333767624024129
6.000346689220629
4.666930942459504
3.333519227136095
2.000110387497007
0.6667032711567251
14.00094909045363
12.66748803086471
11.33403809948938
10.00059821895891
8.667167236851029
7.333743960517936
6.000327182083186
4.666915694769212
3.333508301988812
2.000103820698772
0.6667010804595923
14.00090055963075
12.66744255516452
11.3339963379076
10.00056066881954
8.667134258231483
7.333715802348419
6.00030400753209
4.666897604257907
3.333495352781716
2.000096042462848
0.6666984864879121
14.00084382424568
12.66738957252896
11.33394783661302
10.00051718456939
8.667096166347983
7.333683351215868
6.000277350252349
4.666876826750119
3.333480497301928
2.00008712603888
0.6666955140859078
14.00077905360898
12.66732932024029
11.33389287862871
10.00046807256138
8.667053269839618
7.333646899352722
6.000247470250637
4.666853577271805
3.333463895886
2.000077170291449
0.6666921966483045
14.00070660718717
12.66726221713024
11.33383191525031
10.00041379076099
8.667006010086828
7.333606851608268
6.000214719479384
4.666828142037254
3.333445759460702
2.000066304311865
0.6666885776218038
14.00062710234729
12.66718892013031
11.33376561198414
10.00035498511143
8.66695498927815
7.333563746548605
6.000179557227847
4.66680088922922
3.333426356597292
14.00109663079456
12.66762754282622
11.33416731950794
10.0007153339366
8.667270836735309
7.333832981331737
6.000400846186852
4.666973453654644
3.333549785502059
2.0001287953907
0.6667094188211069
14.00108967831899
12.66762094544946
11.33416118891245
10.00070976126742
8.667265894302291
7.333828724873246
6.000397317380333
4.666970682612081
3.333547793045199
2.000127594954269
0.6667090178783206
14.00107575770587
12.66760774515005
11.3341489306614
10.00069862534669
8.667256023155264
7.333820227811236
6.00039027574587
4.666965154875347
3.333543819427761
2.00012520128286
0.6667082184642786
14.00105484374465
12.66758793660212
11.33413055591636
10.0006819497113
8.667241254796933
7.333807525259388
6.000379755983927
4.666956901239923
3.333537888718706
2.000121629655177
0.6667070258121979
14.00102691407963
12.66756152632869
11.33410609465422
10.00065978140003
8.667221646587999
7.333790678323886
6.000365816924824
4.666945973073333
3.333530040654899
2.00011690514149
0.6667054484844097
14.00099196820708
12.667528550337
11.33407561158481
10.00063220493115
8.667197293681875
7.333769783986628
6.000348549417265
4.666932448301083
3.333520334825466
2.000111065074541
0.6667034991890296
14.00095005338813
12.6674890978518
11.33403922730187
10.000599360656
8.667168344524127
7.33374498781291
6.000328086381959
4.66691643897883
3.333508855934067
2.000104162144406
0.6667011958007774
14.00090129764195
12.66744334102608
11.33399714433557
10.0005614670206
8.667135019382915
7.333716498943421
6.000304614532495
4.666898100030939
3.333495719822734
2.000096267921222
0.6666985625195286
14.00084594956764
12.66739157007462
11.33394967735101
10.00051884587626
8.667097631031716
7.333684606539745
6.000278387030269
4.666877638556119
3.333481079815572
2.000087476535901
0.6666956310758647
14.00078442398272
12.66733423256053
11.33389728609646
10.00047194942838
8.667056606247645
7.333649696485513
6.000249736058916
4.666855322894715
3.333465132800535
2.000077908167806
0.6666924418664858
14.00071735118724
12.66727197453336
11.33384060883561
10.00042138670696
8.667012506235444
7.333612266726217
6.000219083995351
4.666831490436149
3.333448124326388
2.000067711909336
0.6666890448765581
14.00112143462145
12.66765138226174
11.33418974327583
10.00073595023943
8.667289312980548
7.333849041745746
6.000414268069857
4.666984062979309
3.333557452471223
2.000133430462135
0.6667109695921443
14.00111534110897
12.667645581359
11.33418433623748
10.00073102113089
8.667284929795301
7.333845258036398
6.000411124837505
4.666981590602079
3.333555672494822
2.000132357117266
0.6667106109415029
14.00110315489102
12.66763398735898
11.33417353557381
10.00072118027638
8.667276182965033
7.333837710583096
6.000404857138086
4.66697666199636
3.333552124924772
2.000130218200431
0.6667098962887414
14.00108488271593
12.66761662066641
11.33415737246782
10.00070646625629
8.667263114888181
7.333826442085909
6.000395504728757
4.666969311160151
3.333546835721533
2.000127029965765
0.6667088311656094
14.00106054760285
12.66759352388191
11.33413590455351
10.00068694651653
8.667245797376651
7.33381152343065
6.000383132727384
4.666959593268347
3.33353984675668
2.000122818529582
0.6667074244439025
14.0010302044469
12.66756477617771
11.33410922881563
10.00066272864668
8.667224341254762
7.333793061619772
6.000367837932681
4.666947589463448
3.333531219159495
2.000117621845722
0.6667056889883148
14.0009939609113
12.66753051232057
11.33407749846887
10.00063397498031
8.667198908661637
7.333771209843399
6.000349756783889
4.666933412846785
3.333521037478897
2.000111492152744
0.6667036424635563
14.00095200341254
12.66749094598033
11.33404094333983
10.00060091997835
8.667169727503278
7.33374617916281
6.000329074490789
4.666917215283584
3.333509414373814
2.000104498716674
0.6667013082362889
14.00090462760919
12.66744639657461
11.33399989291148
10.00056388952911
8.667137107216927
7.33371825104198
6.000306034675106
4.66689919449145
3.333496495444511
2.000096730633731
0.6666987162930917
14.0008522721747
12.66739731832445
11.33395480068393
10.00052332086866
8.667101454657029
7.333687789681791
6.000280948649082
4.666879600724115
3.333482463710827
2.000088299396134
0.6666959040752897
14.00079555374259
12.66734432942823
11.33390626786657
10.00047978131159
8.667063288511736
7.33365525280875
6.000254203236053
4.666858742208033
3.333467543142382
2.000079340867254
0.6666929171132966
14.00114329944242
12.66767241928881
11.33420955081423
10.00075417798622
8.667305662227683
7.33386326370781
6.000426160972513
4.666993468511476
3.333564252136331
2.00013754227578
0.6667123454753975
14.00113793662227
12.66766729787105
11.33420476276784
10.00074980087702
8.667301759883786
7.333859887349169
6.000423350598582
4.666991254365101
3.333562656092441
2.000136579035749
0.666712023479162
14.00112722378201
12.66765707254156
11.33419520766524
10.00074106973013
8.667293978876799
7.333853157479224
6.000417750532318
4.666986843429145
3.333559477096299
2.000134660691675
0.6667113822458191
14.0011111907473
12.66764178222906
11.33418093102593
10.00072803380614
8.667282369242086
7.333843122018337
6.000409403922981
4.666980271779347
3.333554742287578
2.000131804082146
0.6667104274813279
14.00108989280342
12.66762149506952
11.33416200990439
10.00071077470171
8.667267012622542
7.333829858318262
6.000398379874802
4.666971596863534
3.333548494712797
2.000128035847907
0.6667091682021017
14.00106342327163
12.66759631992879
11.33413856318569
10.00068941532178
8.667248029886224
7.333813479444574
6.000384778446994
4.666960901288153
3.333540795968956
2.000123393991607
0.6667076172504576
14.00103193004504
12.66756642139739
11.3341107648489
10.00066413132529
8.667225590754089
7.333794142048364
6.000368736869495
4.666948297493919
3.333531729450015
2.000117929786309
0.6667057919239379
14.00099563568504
12.66753203776905
11.33407885965728
10.00063516448782
8.667199924897426
7.33377205533054
6.000350436543722
4.6669339329711
3.3335214039402
2.000111709875977
0.6667037146659723
14.00095486033251
12.6674935011852
11.334043180433
10.00060283715704
8.667171333736039
7.333747490413044
6.000330110246401
4.666917995551381
3.333509957217782
2.000104818364881
0.6667014137499649
14.0009100461901
12.6674512586813
11.3340041656865
10.00056756665106
8.667140201901473
7.33372078921997
6.000308048793329
4.666900718194404
3.333497559253522
2.000097358646104
0.6666989238734742
14.00086178168399
12.6674058923192
11.33396237591591
10.00052987808597
8.667107007047615
7.333692371759253
6.000284606265025
4.666882382580319
3.333484414517807
2.00008945468069
0.6666962865669527
14.00116192457621
12.66769035592078
11.3342264538994
10.00076974547047
8.667319635549458
7.333875426695394
6.000436337657281
4.667001520357681
3.33357007513732
2.000141064296264
0.6667135241390166
14.00115716462809
12.66768579655395
11.33422217912396
10.00076582714349
8.667316133701169
7.333872390272114
6.000433805515552
4.666999522358731
3.333568633212653
2.000140193380155
0.6667132328889116
14.00114766598398
12.66767670213562
11.33421365584778
10.00075801750378
8.667309156504116
7.333866342194939
6.000428763155956
4.666995544471822
3.333565762877762
2.000138459890664
0.6667126532088701
14.00113347458284
12.66766312446317
11.33420093946947
10.00074637308078
8.667298759096459
7.333857333779568
6.00042125584981
4.666989624003338
3.333561491922274
2.000135880963691
0.6667117908884059
14.00111466785379
12.66764514906568
11.33418412011418
10.00073098482034
8.667285029433256
7.333845446348213
6.00041135498078
4.66698181955644
3.333555863882189
2.000132483398186
0.6667106549739953
14.00109136473223
12.66762290434466
11.33416333077517
10.00071198516172
8.667268094283392
7.333830796168007
6.000399161970491
4.666972214001358
3.333548940112282
2.000128304878346
0.6667092581729011
14.00106373859493
12.66759657326901
11.33413875763401
10.00068955692695
8.667248126695707
7.333813540547919
6.000384813088293
4.666960918090548
3.333540802294827
2.000123395447829
0.666707617339122
14.00103203261398
12.66756640708354
11.3341106520048
10.00066394347924
8.667225354425259
7.333793884637865
6.000368484755571
4.66694807440649
3.333531555157326
2.000117819097468
0.6667057539953904
14.00099657673846
12.66753274021983
11.33407934310397
10.00063545939371
8.667200068628897
7.333772088323339
6.000350398835587
4.666933861239967
3.333521329108965
2.000111655291694
0.6667036948324513
14.00095780513258
12.66749600526072
11.33404525055638
10.00060450064039
8.667172631940868
7.333748472452356
6.000330827280351
4.666918495908811
3.333510282446289
2.000105000224178
0.6667014721161733
14.00091627244316
12.66745674642506
11.33400889523312
10.00057155302858
8.667143484846004
7.333723423486552
6.000310095401094
4.666902236955157
3.333498602731869
2.000097967567247
0.6666991239242961
14.00117707677479
12.66770495937455
11.33424022595829
10.00078243791472
8.667331035220997
7.333885354820858
6.000444648271317
4.667008098224181
3.333574833529751
2.000143942944648
0.6667144875875993
14.0011727940252
12.66770084585774
11.33423635918775
10.00077888499755
8.667327852937881
7.333882590081775
6.000442338812362
4.667006273419505
3.333573515207681
2.000143146116508
0.6667142210181437
14.00116425551503
12.66769264773536
11.33422865545737
10.00077180878154
8.667321516697596
7.333877086584009
6.000437742569686
4.667002642351337
3.333570892300764
2.000141560902343
0.6667136907267672
14.00115151801135
12.66768042539106
11.33421717668529
10.000761270514
8.667312084867957
7.333868897711119
6.000430906031945
4.666997242968234
3.333566992890637
2.000139204545698
0.6667129025275342
14.00113467354262
12.66766427570036
11.33420202138371
10.0007473669866
8.66729964918995
7.333858107004369
6.000421901699566
4.666990134295133
3.333561860571013
2.000136103781687
0.6667118654291303
14.00111385737024
12.66764433928392
11.3341833311035
10.00073023612586
8.667284339507061
7.333844832051751
6.000410831172516
4.666981398767619
3.333555556075068
2.000132295796213
0.666710591951776
14.00108925809814
12.66762080962707
11.33416129846594
10.0007100638998
8.667266329557473
7.333829229211727
6.000397828872443
4.666971145026579
3.333548159213239
2.000127829364001
0.6667090985021576
14.00106112938239
12.66759394351618
11.33413617624116
10.00068709202661
8.667245843358083
7.333811498755923
6.000383066048079
4.666959510894732
3.333539770919389
2.000122766042772
0.6667074057658697
14.00102980246355
12.66756407202303
11.33410828673596
10.00066162580062
8.667223161563907
7.333791889895418
6.000366754618248
4.666946666184123
3.333530515153368
2.000117181272054
0.6667055390663889
14.00099569845928
12.66753161101664
11.33407803053842
10.00063404117053
8.667198627040266
7.333770705039511
6.000349150318383
4.666932814920006
3.333520540364423
2.000111165199705
0.6667035286318018
14.00095933904073
12.66749706991856
11.33404589345172
10.0006047900353
8.66717264875509
7.333748302539684
6.000330554547392
4.666918196518274
3.333510020189157
2.000104823042342
0.6667014097051186
14.00118858178627
12.66771605458487
11.33425069558874
10.00079209199801
8.667339710214415
7.333892913225158
6.000450977556226
4.667013109356776
3.333578459376558
2.00014613678004
0.6667152218939131
14.00118465343125
12.66771227275614
11.33424713285942
10.00078881181057
8.66733676679122
7.333890351822025
6.000448834947203
4.667011414442381
3.333577233818778
2.000145395582176
0.666714973860894
14.00117682741149
12.66770474095483
11.33424003945394
10.0007822826801
8.667330909384859
7.333885255708786
6.000444572822218
4.667008043373177
3.333574796537894
2.000143921663228
0.6667144806499709
14.00116516740911
12.66769352500055
11.33422948136348
10.00077256874187
8.667322198277912
7.333877679432585
6.00043823829519
4.667003034373639
3.333571175697317
2.000141732269036
0.6667137480680555
14.00114977459091
12.66767872877822
11.33421556217546
10.00075977020833
8.667310727302121
7.333867707629655
6.000429904282343
4.666996446484392
3.33356641473384
2.000138853972463
0.6667127850583975
14.00113079406131
12.6676605000962
11.33419842826817
10.00074402786753
8.667296627637986
7.333855458145437
6.000419671976647
4.666988361430885
3.333560573659375
2.000135323440282
0.6667116039536342
14.00110842290128
12.66763903792428
11.33417827517439
10.00072552854629
8.667280072389218
7.333841085759671
6.000407673778803
4.666978885821166
3.333553730583158
2.000131188326411
0.6667102207701949
14.00108291925008
12.66761460047356
11.33415535459699
10.00070451105565
8.667261281496124
7.33382478613542
6.000394076365739
4.666968153420952
3.333545983272663
2.000126508181467
0.6667086555068007
14.00105461168975
12.6675875134011
11.33412998139998
10.00068127199761
8.66724052643394
7.333806799514324
6.000379083501007
4.666956327195866
3.333537450530735
2.000121355245236
0.666706932402841
14.00102390797587
12.66755817723191
11.33410253973559
10.0006561706765
8.667218134032487
7.333787413593559
6.00036293812496
4.66694360076233
3.333528273134038
2.000115814969237
0.6667050801057485
14.00099130194297
12.6675270729112
11.33407348732277
10.00062963224435
8.667194488666858
7.33376696495641
6.000345923217741
4.666930198858193
3.333518614058038
2.000109986106274
0.6667031316931495
14.00119631658101
12.66772351721533
11.33425774042321
10.00079859059501
8.667345551799812
7.333898004500717
6.000455242037453
4.667016486435995
3.333580903291899
2.000147615645921
0.6667157169178404
14.00119262263309
12.66771995505318
11.334254379297
10.00079549145732
8.66734276711067
7.333895578352918
6.000453210505331
4.667014878052101
3.33357973956419
2.000146911540356
0.6667154812464764
14.00118526760842
12.66771286430828
11.33424769039618
10.00078932535294
8.667337227791599
7.333890753130642
6.000449170741988
4.667011680138784
3.333577425974496
2.000145511809661
0.6667150127575395
14.00117431922576
12.66770231394526
11.33423774203633
10.00078015803004
8.667328995157217
7.333883583969691
6.000443170138792
4.667006931004599
3.333573990674009
2.000143433663008
0.6667143172408191
14.00115988388706
12.66768841180914
11.33422464060888
10.00076809152042
8.667318164073599
7.333874155962009
6.000435281685498
4.667000689555201
3.333569476897924
2.000140703509641
0.6667134035778438
14.00114211212933
12.66767130956652
11.33420853495601
10.00075326792282
8.667304866149557
7.333862586773225
6.00042560604385
4.666993036857517
3.333563944054175
2.000137357599968
0.6667122839534383
14.00112120531181
12.66765120871719
11.33418962164817
10.00073587392688
8.667289273519156
7.333849029718113
6.00041427396369
4.666984077949174
3.333557468975175
2.000133442759426
0.6667109740974296
14.00109742300223
12.66762836715435
11.33416815066953
10.00071614562126
8.667271602805778
7.333833676938513
6.000401448745918
4.666973943659759
3.333550147164549
2.000129017113717
0.6667094935224669
14.00107109035807
12.66760310559889
11.33414443088062
10.00069437301101
8.66725211875829
7.333816762246253
6.000387328390521
4.666962792161468
3.333542093836459
2.000124150684056
0.6667078657176095
14.00104260462769
12.66757581308282
11.33411883449959
10.00067090356314
8.667231136963371
7.333798563124827
6.000372147016264
4.666950809928546
3.333533444519639
2.000118925716
0.6667061182522521
14.0010124397412
12.66754695052925
11.33409179974005
10.00064614401883
8.66720902497789
7.333779401340832
6.000356175108268
4.66693821176466
3.333524354985275
2.000113436598611
0.6667042827427766
14.00120020294535
12.66772726784841
11.33426128198094
10.00080185832079
8.667348489783926
7.33390056560388
6.000457387576499
4.667018185729177
3.33358213315418
2.000148359912044
0.666715966056033
14.0011966256071
12.66772381504746
11.33425802129776
10.0007988494494
8.667345784286344
7.333898206973381
6.000455411520002
4.667016620579497
3.333581000329141
2.000147674349197
0.6667157365650266
14.00118950480628
12.66771694381442
11.33425153387302
10.00079286429333
8.66734040362255
7.333893516947041
6.000451482790271
4.667013509166446
3.33357874854985
2.000146311699778
0.666715280434192
14.00117891010852
12.66770672454286
11.33424188906699
10.00078396931308
8.667332409549395
7.333886550898415
6.000445648875181
4.667008889810479
3.333575405941216
2.000144289143039
0.666714603440994
14.00116495027765
12.66769326684469
11.33422919449938
10.00077226731159
8.667321897341848
7.333877394064586
6.000437982739736
4.667002821305654
3.333571015608197
2.000141632989594
0.6667137144306028
14.00114777823154
12.66767672403751
11.33421360001895
10.0007579008641
8.667308998683865
7.333866163915499
6.000428584701656
4.66699538433379
3.33356563661954
2.000138379260426
0.666712625507059
14.00112759706302
12.66765729855241
11.33419530244655
10.00074105638014
8.667293885061296
7.333853012909852
6.000417584594261
4.666986683082593
3.333559345126307
2.000134574342239
0.6667113522489228
14.00110466659646
12.66763524775052
11.33417455060947
10.00072196835475
8.667276771260978
7.33383813129517
6.000405143932424
4.666976846844308
3.333552235454344
2.000130275622211
0.6667099139173619
14.00107930979703
12.6676108894977
11.33415165006156
10.00070092325886
8.667257918489819
7.33382174953526
6.000391457737558
4.66696603132644
3.333544420978693
2.000125551986882
0.6667083336180648
14.00105191820089
12.66758460671557
11.33412696677141
10.00067826242571
8.667237636551935
7.333804139888362
6.000376755632275
4.666954419372599
3.333536034565106
2.000120484056746
0.6667066383742307
14.00102295540836
12.66755685002398
11.33410092897883
10.00065438322671
8.667216284474767
7.333785616625856
6.000361301792569
4.666942220776812
3.333527228354932
2.000115164023405
0.6667048590666278
15.33437337238317
15.33431444465435
15.33424490711348
15.33416467430249
15.33407387143136
15.33397293997903
15.33454715595731
15.33453893789827
15.33452244880203
15.33449758986906
15.33446423125246
15.33442223532622
15.33437148962368
15.33431195071555
15.33424370003761
15.33416701188516
15.33408243223159
15.33457506025689
15.33456788569053
15.33455350975293
15.33453188512109
15.3345029567916
15.33446668195142
15.33442305747032
15.33437215552551
15.33431416750659
15.3342494555819
15.33417861001931
15.33460032030398
15.33459405295168
15.3345815110941
15.33456268577316
15.3345375770417
15.33450621044784
15.33446865937126
15.3344250732304
15.33437571119896
15.33432098040671
15.33426147660262
15.33462256252873
15.33461706466309
15.33460607610155
15.33458961562454
15.33456772252654
15.33454046999205
15.33450798286708
15.33447045955083
15.33442819738093
15.33438162034897
15.33433130724827
15.33464149073158
15.33463662610577
15.33462691413969
15.33461239303745
15.33459312914528
15.33456922765597
15.33454084656158
15.33450821342016
15.33447164419975
15.33443156304693
15.33438852130568
15.33465687691819
15.33465251242748
15.33464380762154
15.33463081381533
15.33461361530966
15.33459233794055
15.33456716001362
15.33453832511626
15.33450615604765
15.3344710687917
15.33443358509689
15.33466855202737
15.33466455831086
15.33465659951817
15.33464473538422
15.33462906154361
15.33460971646933
15.33458689018586
15.33456083422392
15.33453187207383
15.33450040915512
15.33446694107028
15.33467639749193
15.33467264870056
15.33466518240097
15.33465406327203
15.33463939349908
15.33462131864729
15.33460003492131
15.33457579727454
15.33454892765133
15.33451982245521
15.33448895815626
15.33468033834079
15.33467671129577
15.3346694897105
15.33465874053609
15.33464456893424
15.33462712362165
15.33460660341244
15.33458326442413
15.3345574272474
15.33452948321456
15.33449989875439
15.33451706622759
15.33450767420009
15.33448880332392
15.33446028777513
15.33442189907792
14.00103979371554
12.66757301587978
11.33411611901678
14.00103075218473
12.66756449092265
14.00101260322675
12.66754739471915
14.00098522300869
16.65132711063586
16.65130791733459
16.65127886651987
16.65123966652525
16.65118996665772
16.651129395033
16.65105761200274
16.65097438265473
16.65087967151762
16.65077376110513
16.65136670118698
16.65135837832226
16.65134166441004
16.6513164300434
16.6512824990854
16.65123967182392
16.65118775836027
16.65112662406827
16.65105624888044
16.65097680150234
16.65088872812668
16.6513945284562
16.6513872864989
16.65137276457147
16.65135089290754
16.65132158285723
16.65128474702923
16.65124032757132
16.65118833347876
16.65112888754518
16.65106228284681
16.65098904731124
16.65141968704449
16.65141338187648
16.65140075615247
16.65138178450539
16.65135644258908
16.65132472399308
16.65128666344188
16.65124236653907
16.65119204597355
16.65113606343879
16.65107497544589
16.65144181476005
16.65143630188151
16.651425277222
16.65140874751686
16.65138673428261
16.65135928765604
16.65132650497125
16.65128855394685
16.65124570001516
16.65119833676825
16.65114701769246
16.65146062680422
16.65145576427184
16.65144605195799
16.65143151910664
16.65141221892355
16.65138823971482
16.65135971953609
16.65132686400477
16.65128996662327
16.65124943052157
16.65120578995117
16.65147590580341
16.65147155580566
16.65146287651335
16.65144991240212
16.65143273779425
16.65141146579074
16.65138625978768
16.65135734711751
16.65132503409752
16.65128972143047
16.65125191850101
16.65148749189404
16.65148352120343
16.65147560569247
16.65146379965284
16.65144819080728
16.65142890758035
16.65140612829678
16.65138009180018
16.65135110876724
16.65131957273469
16.65128596957718
16.65149527379763
16.65149155335082
16.65148414139476
16.65147309800632
16.6514585186975
16.65144054058254
16.65141935005505
16.65139519145185
16.65136837599231
16.65133929007709
16.65130840182723
16.65149918158065
16.6514955854277
16.65148842348047
16.65147775848248
16.65146368950082
16.65144635754396
16.65142595248723
16.65140272077909
16.65137697322912
16.65134909199962
16.65131953575666
17.95146964382794
19.25161452381796
17.9514407188998
19.25157647459381
17.95140159805484
19.25152794516403
17.95135185032142
19.25146836772623
17.95129099914445
19.25139715416458
17.9512185746971
19.2513137672115
17.95113418718628
19.25121781996259
17.95103762584991
19.25110920948223
17.95092898726052
19.25169813176431
17.95152752409188
19.25169018459911
17.95151928595859
19.25167419735207
17.95150272779014
19.25164999001869
17.95147769228925
19.25161730791155
17.95144396045455
19.25157584214019
17.95140127379437
19.25152526038761
17.95134936699895
19.25146525083492
17.95128801345401
19.25139558246008
17.95121708611507
19.25131618477877
17.9511366358246
19.25122724897165
17.9510469877682
19.25172388636448
17.95155464514891
19.25171701674301
17.95154750050636
19.25170322057092
17.95153316287875
19.25168238960166
17.95151154161241
19.25165437598346
17.95148251623433
19.25161901102571
17.95144595622838
19.25157613236862
17.95140174922454
19.25152562115656
17.95134983886616
19.25146745079353
17.95129027346185
19.25140174836549
17.95122326589797
19.25132886858506
17.95114926396563
19.25174711107174
17.95157913400007
19.25174116978536
17.95157293417812
19.25172925716821
17.95156051131449
19.25171131818641
17.95154182428128
19.25168728321233
17.95151682490486
19.25165708430099
17.95148547481992
19.25162067805831
17.95144776886623
19.2515780758405
17.95140376553643
19.25152938181175
17.95135362469724
19.25147483881131
17.95129765216994
19.25141488089718
17.95123634965429
19.25176749031773
17.95160064787293
19.2517623299125
17.95159524491736
19.25175199860225
17.95158443407528
19.25173647974567
17.95156820999908
19.25171575941494
17.95154657605702
19.25168983999322
17.95151955825659
19.25165875879104
17.95148722412298
19.25162261186764
17.95144970656306
19.25158158296601
17.95140723243038
19.25153597693792
17.95136015495049
19.25148625617883
17.95130898832067
19.25178478054235
17.95161891962883
19.25178025803833
17.95161416916974
19.25177121633727
17.95160467624817
19.25175766571072
17.95159046060989
19.25173963074775
17.95157156126749
19.25171716145302
17.95154804778059
19.25169034808863
17.95152003521869
19.25165933961467
17.95148770255845
19.25162436530784
17.95145131397108
19.25158575869359
17.95141124200683
19.2515439822964
17.95136799106838
19.2517987994215
17.95163374723946
19.25179477758908
17.95162950993559
19.25178674666211
17.95162105215363
19.25177473515405
17.95160841064131
19.25175879340263
17.95159164821545
19.2517390025562
17.95157086284912
19.25171548633056
17.95154619947662
19.25168842520867
17.95151786411847
19.25165807250791
17.95148613967148
19.25162477139058
17.95145140235995
19.25158897144518
17.95141413741214
19.25180941544861
17.95164498347396
19.25180576292794
17.95164112529995
19.25179847676603
17.95163343152322
19.25178759726899
17.9516219498707
19.25177319119866
17.95160675831429
19.25175535913819
17.95158797249203
19.25173424493465
17.95156575516166
19.25171004679953
17.95154032721791
19.25168302943382
17.9515119795858
19.2516535362728
17.95148108503318
19.25162200063098
17.95144810864418
19.25181653873265
17.9516525267079
19.25181312927633
17.95164891835405
19.25180633289909
17.95164172763437
19.2517961968831
17.95163100876154
19.25178279759331
17.95161684854844
19.25176624675472
17.95159937271699
19.25174669936446
17.95157875380302
19.25172436277947
17.95155522015987
19.2516995063323
17.95152906537287
19.25167247060987
17.95150065718216
19.25164367530023
17.95147044479142
19.25182011363091
17.95165631351837
19.25181682472566
17.9516528291552
19.25181027114831
17.95164588800217
19.25180050340653
17.95163554726714
19.25178760226935
17.95162189780985
19.25177168449964
17.95160506989572
19.25175291000729
17.95158524033404
19.2517314899489
17.95156264049448