/*--------------------------------*- C++ -*----------------------------------*\
  =========                 |
  \\      /  F ield         | OpenFOAM: The Open Source CFD Toolbox
   \\    /   O peration     | Website:  https://openfoam.org
    \\  /    A nd           | Version:  7
     \\/     M anipulation  |
\*---------------------------------------------------------------------------*/
FoamFile
{
    version     2.0;
    format      ascii;
    class       surfaceScalarField;
    location    "0";
    object      phi;
}
// * * * * * * * * * * * * * * * * * * * * * * * * * * * * * * * * * * * * * //

dimensions      [0 3 -1 0 0 0 0];

internalField   nonuniform List<scalar> 
36860
(
1.84141653246726
9.826715960482119e-06
-3.131787419161662e-05
-1.841427891692796
3.285038377498494e-05
1.841406522949974
8.669570876307416e-06
-2.801312086728753e-05
2.935306637472673e-05
1.841397952439465
7.431262137879765e-06
-2.430919240734593e-05
2.544843971743462e-05
1.84139088248981
6.135934781478142e-06
-2.028626390133722e-05
2.122027749975587e-05
1.841385353502669
4.802278274384686e-06
-1.601649476499234e-05
1.67432022116105e-05
1.841381390523215
3.444155898512116e-06
-1.156423058303857e-05
1.208305272815124e-05
1.841379007959018
2.071483150725202e-06
-6.98697633407773e-06
7.298056168148186e-06
6.912662533605209e-07
-2.33695162787928e-06
2.440598066045191e-06
1.841426845578265
2.178585557026526e-05
-3.531826674825237e-05
-1.087283050971152e-05
-1.841439576891014
3.713655443604572e-05
1.841415375322194
1.967418366803782e-05
-3.236320616268908e-05
3.398599305550743e-05
1.841405284641262
1.734515595288515e-05
-2.89165587119555e-05
3.033165282673167e-05
1.841396657112099
1.485848981317496e-05
-2.506916578250957e-05
2.626946508956762e-05
1.841389548833322
1.226213192943989e-05
-2.090347584209297e-05
2.188555500888297e-05
1.841383995380284
9.592885265188357e-06
-1.649291606855544e-05
1.725575960165312e-05
1.841380017850494
6.877747645227119e-06
-1.190226192995224e-05
1.244619772222677e-05
1.841377627742082
4.135729052746631e-06
-7.188795263645988e-06
7.514656097251911e-06
1.379969597037342e-06
-2.404048793680747e-06
2.512573679980512e-06
1.841424733906344
3.27691906267803e-05
-3.770600836996405e-05
-1.841437753703628
3.97424700232298e-05
1.841413046294459
2.955401736535263e-05
-3.447162267100628e-05
3.627939981574195e-05
1.841402797975103
2.60247622993821e-05
-3.073658399368445e-05
3.230529548021762e-05
1.84139406075419
2.227087831485623e-05
-2.659854787165916e-05
2.792337837398412e-05
1.841386879586697
1.836336001921502e-05
-2.214443667014621e-05
2.322437391897329e-05
1.841381280242622
1.435592729539454e-05
-1.74500963544324e-05
1.828639615553129e-05
1.841377275831934
1.028723168783332e-05
-1.258102011978427e-05
1.317594474086138e-05
1.841374871982629
6.18372982548349e-06
-7.593888865287102e-06
7.949735869283454e-06
2.062960066286289e-06
-2.538701411936516e-06
2.657118935767144e-06
1.841434960248339
4.766456884052225e-05
-4.437865900541738e-05
-3.556264591473363e-05
-1.841449706474329
4.702296209657756e-05
1.841421518733082
4.383245136562236e-05
-4.134443494407955e-05
4.372268911976244e-05
1.841409517039402
3.945936682757712e-05
-3.767736336435235e-05
3.977370661725194e-05
1.841399044091119
3.469031436534783e-05
-3.34983384711051e-05
3.530573327026339e-05
1.841390153235894
2.964409471275442e-05
-2.891520193593073e-05
3.043283895185517e-05
1.841382872153964
2.441345780662881e-05
-2.402138654540363e-05
2.525236860622058e-05
1.841377211547007
1.906714012430824e-05
-1.889606173337508e-05
1.984545370525879e-05
1.84137317233005
1.365317389545597e-05
-1.360543426200925e-05
1.427870704073807e-05
1.841370751212855
8.2029844584037e-06
-8.2048926640874e-06
8.606753700402002e-06
2.735930578022304e-06
-2.741734388811946e-06
2.875322252226168e-06
1.841446584065981
6.401275635561308e-05
-5.269280505260099e-05
-1.841463339644253
-5.078697722172807e-05
5.622260419231318e-05
1.841431128130852
5.991174623076752e-05
-4.990461022202908e-05
5.311336849800382e-05
1.841417145648563
5.495372152556269e-05
-4.629788701646666e-05
4.915909875538014e-05
1.84140474798693
4.935530436137866e-05
-4.202850397509973e-05
4.453022717498777e-05
1.841393997871494
4.329952377581857e-05
-3.723656073009146e-05
3.937746537832056e-05
1.841384922599014
3.693361641850129e-05
-3.204335310336156e-05
3.382910212654831e-05
1.841377525836273
3.037007384691766e-05
-2.655057113516481e-05
2.799071580143981e-05
1.841371797580806
2.368993646677372e-05
-2.084121195533579e-05
2.194666894022012e-05
1.841367722140632
1.69475099585306e-05
-1.498173498326594e-05
1.576283708892829e-05
1.841365284158994
1.01758897539597e-05
-9.025067125323072e-06
9.490141944157524e-06
3.392887000617815e-06
-3.014154999037004e-06
3.168564208522401e-06
1.841442483055832
7.745829879478621e-05
-6.050354122777451e-05
-1.841460339345939
6.491428937367405e-05
1.841426170106136
7.225330447284566e-05
-5.701507611175519e-05
6.098646797982842e-05
1.841411547231408
6.606783769491642e-05
-5.264527135473429e-05
5.615402956848972e-05
1.841398692206324
5.916897819084723e-05
-4.758269716527175e-05
5.062404757034549e-05
1.84138763196411
5.177784402163964e-05
-4.199180651376355e-05
4.457372716792983e-05
1.841378359056424
4.406834675578626e-05
-3.601037557716743e-05
3.814855123556076e-05
1.841370845698878
3.616976885332334e-05
-2.974963227839769e-05
3.146329278091997e-05
1.841365055154286
2.817181766268103e-05
-2.329631797617333e-05
2.460497920329125e-05
1.841360950520416
2.013110590357663e-05
-1.671604534627637e-05
1.76370812495556e-05
1.841358501156228
1.207832938507987e-05
-1.005746190299e-05
1.060438489703998e-05
4.025686323072526e-06
-3.35687632879722e-06
3.538213880927944e-06
1.84143727806153
9.102531499368752e-05
-7.023552936173964e-05
-1.84145642125732
7.581170935924112e-05
1.841419984639352
8.457579628064983e-05
-6.582787750732943e-05
7.07988084006414e-05
1.841404648371912
7.705420717992835e-05
-6.04732287978747e-05
6.482312653410792e-05
1.841391301072154
6.877985315579772e-05
-5.440100237232828e-05
5.813742639735368e-05
1.84137992246686
6.001086971656689e-05
-4.780509738009424e-05
5.095067576377238e-05
1.841370460478522
5.094486272906302e-05
-4.084232840462232e-05
4.34277990625012e-05
1.841362847747695
4.17237997556443e-05
-3.363403751333056e-05
3.569273539585312e-05
1.841357014442528
3.24414094008302e-05
-2.626981555917695e-05
2.783352678203962e-05
1.841352897743911
2.315181544427947e-05
-1.88124926026937e-05
1.990847961419467e-05
1.841350448513181
1.38785775179109e-05
-1.13038037258043e-05
1.195278473873383e-05
4.623683134009393e-06
-3.770350060849599e-06
3.9852196841893e-06
1.841430828542762
0.0001045278710318676
-8.205281440507614e-05
-1.841451418539677
8.914025574822267e-05
1.84141246305029
9.668776758380459e-05
-7.6463895158696e-05
8.271741691956413e-05
1.841396374017865
8.772482260974415e-05
-6.986652667073637e-05
7.528494351154336e-05
1.84138253208874
7.801072138804348e-05
-6.253947646506202e-05
6.715053670625082e-05
1.841370856459834
6.78378239573619e-05
-5.471081597363536e-05
5.855948943458396e-05
1.841361239415544
5.742286064162989e-05
-4.655815821230671e-05
4.969720291012641e-05
1.84135356535733
4.691505237520645e-05
-3.821252836910795e-05
4.069533189010573e-05
1.841347724848612
3.640648838064723e-05
-2.97644051821869e-05
3.163983266776226e-05
1.841343624505946
2.59432878446866e-05
-2.127086422274469e-05
2.257973239658857e-05
1.841341193618772
1.553667073837063e-05
-1.27631256732208e-05
1.353591801684997e-05
5.173534617887819e-06
-4.25411582438695e-06
4.509602674063196e-06
1.841422988439348
0.000117672583876072
-9.611326810698959e-05
-1.841445148719369
0.0001051288358198126
1.841403500105278
0.0001083049494518883
-8.903234374457702e-05
9.690349665447618e-05
1.841386659916672
9.781373319086485e-05
-8.089516308729117e-05
8.764644104073451e-05
1.84137235919132
8.662062742501687e-05
-7.203825358281771e-05
7.772907222580727e-05
1.841360441496541
7.504711585901786e-05
-6.272774137729932e-05
6.743614309354691e-05
1.84135073160731
6.332260317918438e-05
-5.316256435783359e-05
5.697270932865173e-05
1.841343056793338
5.159675271080413e-05
-4.348163562983842e-05
4.647474714847277e-05
1.841337261648035
3.995345917484632e-05
-3.377302790319439e-05
3.602120013494955e-05
1.841333217888878
2.842484346303562e-05
-2.408387018855219e-05
2.564607160429012e-05
1.841330830482677
1.700443015593227e-05
-1.44301815382605e-05
1.534982672879437e-05
5.659223696261995e-06
-4.806282331438e-06
5.109864689690049e-06
1.841413620804911
0.000130040595147884
-0.0001125460620983176
-1.841437426862157
0.0001239841086224665
1.841393008889019
0.0001190383360842873
-0.0001036111545527967
0.0001134896845666139
1.841375466810888
0.0001069699660889221
-9.359783745033189e-05
0.0001019836826035913
1.841360785679743
9.430137563135643e-05
-8.290802291810451e-05
8.990840517699666e-05
1.841348716983859
8.137530383866041e-05
-7.184828812714066e-05
7.758879480794704e-05
1.841339005756844
6.842539457707611e-05
-6.063766887720605e-05
6.524610273470638e-05
1.841331413499788
5.559371265012377e-05
-4.941943085321498e-05
5.301472583876261e-05
1.841325733032325
-3.827437318904003e-05
4.294881859312483e-05
4.095947894202593e-05
1.84132179747556
-2.723413672369694e-05
3.050276780800599e-05
2.909176703966882e-05
1.841319485276204
-1.62937241605654e-05
1.822633151202882e-05
1.738402055373456e-05
-5.422967253831581e-06
6.062364264454249e-06
5.782339059324103e-06
1.841402618545857
-0.0001314219082443779
-1.841428085927898
0.0001410753125260777
0.0001458545735294915
1.841380940519036
-0.0001202221377845089
0.0001283885657153928
0.0001325499357644131
1.841362798220437
-0.0001079618294187675
0.0001147566787644201
0.000118317415257252
1.841347859607975
-9.511416073846353e-05
0.0001036743602845099
0.000100679787888097
1.841335767074568
-8.202630162403806e-05
8.898304794868739e-05
8.651108963940217e-05
1.841326174074887
-6.893386160453711e-05
7.447399420992216e-05
7.247825990930312e-05
-5.597885184029891e-05
1.841318768605758
6.027110172115382e-05
5.870692974693884e-05
1.841455799829973
1.096105590867667e-05
-3.52304843741262e-05
-1.841469469490107
3.793908860088019e-05
1.841442878129163
1.036778136028853e-05
-3.382084464473862e-05
3.637476454798619e-05
1.8414309147309
9.604631198221277e-06
-3.177725449887704e-05
3.41360214850539e-05
1.841420077489648
8.705384079122902e-06
-2.918601842440959e-05
1.84141049616915
7.7004494183462e-06
-2.613225141803161e-05
1.841402267851294
6.616035594676402e-06
-2.269691215746085e-05
1.84139546268859
5.473849012071758e-06
-1.895495246211314e-05
1.841390129464638
4.291219189258558e-06
-1.49744922826045e-05
1.841386300562545
3.081548299708164e-06
-1.081687882553786e-05
1.8413839960595
1.854991161056637e-06
-6.537465955823712e-06
6.192908498558851e-07
-2.186944320214705e-06
1.841455206555452
2.19740179343456e-05
-3.649832537533232e-05
-1.84146908179784
3.936060606564149e-05
1.841442114978999
2.076778573822956e-05
-3.499275986129727e-05
3.76843321251652e-05
1.841430015483809
1.922451539538814e-05
-3.283865694418885e-05
1.841419072554976
1.741247666916609e-05
-3.012737152019446e-05
1.841409411755361
1.539280740381344e-05
-2.694811926318152e-05
1.841401125664701
1.321791540356213e-05
-2.33849575612236e-05
1.841394280058802
1.093094818580263e-05
-1.951497199925764e-05
1.841388919793714
8.566114066500217e-06
-1.540754868285577e-05
1.841385074005434
6.149640964544792e-06
-1.11245687364203e-05
1.841382760359149
3.701183500148046e-06
-6.721342975258193e-06
1.235527176446745e-06
-2.248105593038781e-06
1.841454000323228
3.308100203479631e-05
-3.906223294691737e-05
-1.841468285159053
4.224008498836531e-05
1.841440571708636
3.122287134971191e-05
-3.735948978089768e-05
4.033301898078704e-05
1.841428203445094
2.886623558986316e-05
-3.497946581378843e-05
1.841417052885692
2.611520623616657e-05
-3.202379426703312e-05
1.841407236863342
2.306221699654989e-05
-2.858997319599164e-05
1.841398838697454
1.978579404713418e-05
-2.476826300958894e-05
1.841391915224721
1.634994822730101e-05
-2.063996659744654e-05
1.841386503320579
1.280483433148273e-05
-1.627691508359011e-05
1.841382625547994
9.188338456269024e-06
-1.174194728026377e-05
1.841380294702865
5.528303556647907e-06
-7.090165364154637e-06
1.845165763138418e-06
-2.370762389868773e-06
1.841452142192548
4.430407702926699e-05
-4.297740170271602e-05
-1.841467037158392
4.66492928671737e-05
1.841438215072879
4.173685841489829e-05
-4.096552612509123e-05
1.841425452415733
3.851886310958182e-05
-3.823440605290596e-05
1.841413999896467
3.479188053407009e-05
-3.490151973371068e-05
1.841403960440397
3.068030809029156e-05
-3.107697538240492e-05
1.841395402851635
2.628851418464631e-05
-2.68603356171841e-05
1.841388370110812
2.170039117305355e-05
-2.233909120974427e-05
1.841382886824698
1.698056953959258e-05
-1.758851337640973e-05
1.841378965513086
1.217681049372392e-05
-1.267259693333996e-05
1.841376611565057
7.323179966032925e-06
-7.645822614766244e-06
2.443703877363915e-06
-2.555501157463232e-06
1.841449574973961
5.56341477753401e-05
-4.832327454704691e-05
-1.841465274574421
1.841434997077565
5.228432044781442e-05
-4.587417570789316e-05
1.841421725433191
4.814485643823658e-05
-4.265223666268856e-05
1.841409888324016
4.339729865666613e-05
-3.879681422778175e-05
1.841399568646517
3.819855221203053e-05
-3.443512917122851e-05
1.841390814728651
3.267817522001328e-05
-2.967909853448433e-05
1.841383650289167
2.693842790215612e-05
-2.462417091830815e-05
1.841378083065678
2.105633421713915e-05
-1.934975573369977e-05
1.84137411188257
1.508710815301133e-05
-1.392085180018693e-05
1.841371732088981
9.068435661973282e-06
-8.390530825108867e-06
3.025248431363712e-06
-2.802996552419713e-06
1.841446225146605
6.701875540571223e-05
-5.519894696348601e-05
-1.841462914347851
1.841430857613535
6.279977644396679e-05
-5.21629988163852e-05
1.841416977875427
5.767075579399246e-05
-4.829143321392203e-05
1.841404689577544
5.185495436463906e-05
-4.375205620554736e-05
1.841394048269505
4.554190318195583e-05
-3.869385121571015e-05
1.84138507498132
3.888509123761728e-05
-3.324400567272806e-05
1.841377768195471
3.200295150391921e-05
-2.750737259558097e-05
1.841372113839594
2.49821346694363e-05
-2.156776516213407e-05
1.841368093210053
1.788223837586504e-05
-1.549054833560604e-05
1.841365688901723
1.074137342495978e-05
-9.326092943684496e-06
3.582151363069315e-06
-3.113766641126844e-06
1.841442006167657
7.834886509037255e-05
-6.371610145095019e-05
-1.841459855704525
1.841425728592885
7.316649673243417e-05
-5.991702269625421e-05
1.841411162073983
6.697797821786384e-05
-5.521393287391007e-05
1.841398376526367
6.00496787616881e-05
-4.98101802747445e-05
1.841387391457582
5.260307720273067e-05
-4.388120434231145e-05
1.841378192841603
4.481346875848734e-05
-3.757209220442935e-05
1.841370747378651
3.681243392783538e-05
-3.099805959383356e-05
1.841365013943308
2.869274884730373e-05
-2.424699705931791e-05
1.841360952345117
2.051471018059746e-05
-1.738336854462119e-05
1.841358529679676
1.231315690830573e-05
-1.045292338552881e-05
4.104745624955431e-06
-3.48785104498095e-06
1.841436823799253
8.944516495620449e-05
-7.398874003301502e-05
-1.841455984172672
1.841419540074401
8.320554148560007e-05
-6.921921466940262e-05
1.841404233774535
7.589435931274182e-05
-6.347660832593003e-05
1.841390929924797
6.782134440321738e-05
-5.7007293499867e-05
1.841379601849098
5.923803535743476e-05
-5.001770014878585e-05
1.841370191806742
5.033828721061445e-05
-4.267293661821443e-05
1.841362627693547
4.126285951034868e-05
-3.509884340133809e-05
1.841356835904659
3.210642242709317e-05
-2.738629254470701e-05
1.84135275079182
2.292576486344452e-05
-1.959680840459839e-05
1.841350321268375
1.374841310012617e-05
-1.176886002398567e-05
4.581223359456253e-06
-3.924420288936886e-06
1.841430584175821
0.0001000450586907672
-8.611893528254221e-05
-1.841451178401442
1.841412228892183
9.266619959547029e-05
-8.01377177442667e-05
1.841396160759647
8.418752255636637e-05
-7.312019422198777e-05
1.841382346615767
7.496058149356706e-05
-6.53633478844286e-05
1.841370702100969
6.526346813415857e-05
-5.710866109076562e-05
1.841361116379074
5.530402805085196e-05
-4.854258559383607e-05
1.841353471256472
4.522725553890475e-05
-3.980091171498205e-05
1.841347655247063
3.512484771395208e-05
-3.097544646442142e-05
1.84134357344011
2.504553969238186e-05
-2.212184038810102e-05
1.841341154078637
1.500540037868707e-05
-1.32678089417301e-05
4.997703262898945e-06
-4.421332029069206e-06
1.841423205316715
0.0001097923979407549
-0.0001001779436885064
-1.841445320773403
1.841403750215147
0.0001012196665705963
-9.270951945441439e-05
1.841386933818574
9.156165327524258e-05
-8.415557205512236e-05
1.841372649502397
8.120780177200924e-05
-7.487092813995861e-05
1.841360742660886
7.045730721987372e-05
-6.51352874826208e-05
1.841351039606563
5.952603477823364e-05
-5.515662358415122e-05
1.841343368848643
4.855739498200671e-05
-4.507881502924249e-05
1.841337575939044
3.763483013226221e-05
-3.499144868612802e-05
1.841333533300777
2.679443042197257e-05
-2.494039150820001e-05
1.841331146381523
-1.493829731438176e-05
1.603689119990992e-05
-4.974659810884876e-06
5.338535438682825e-06
1.841414632585344
-0.0001161824146436174
-1.841438312697374
0.0001182330174072746
1.84139409220186
-0.0001069206108255118
0.0001084585236503251
1.841376579967076
-9.654767086000316e-05
9.7659729080871e-05
1.84136189900787
-8.54825137956092e-05
8.625711289999602e-05
1.841349811388408
-7.404481858586101e-05
7.456344188906375e-05
1.841340070966742
-6.246275738876986e-05
6.279534990897572e-05
1.841332446283816
-5.088503401902211e-05
5.10882574356266e-05
1.841326735539353
-3.939465718843113e-05
4.322819834294747e-05
3.951203186151969e-05
-2.802282366332081e-05
3.069113614184719e-05
1.841322775761567
2.808589394700421e-05
1.841457311956276
9.601037679508951e-06
-3.193136335712866e-05
-1.841470212114654
1.841445070296654
9.11066314166545e-06
-3.068984803635813e-05
1.841433694360422
8.46606045382582e-06
-2.88673793544809e-05
1.841423353277987
7.695590764590465e-06
-2.654052776942456e-05
1.841414181271597
6.825264657959467e-06
-2.378551111728007e-05
1.841406281866737
5.877966472158632e-06
-2.06754755196043e-05
1.84139973254447
4.873113784584099e-06
-1.727874593715484e-05
1.841394589353578
3.826677821262175e-06
-1.365798117802796e-05
1.841390891106137
2.751488061012392e-06
-9.870121217981017e-06
1.841388662881846
1.65774554705676e-06
-5.96698852359914e-06
5.536828953101036e-07
-1.996394884517171e-06
1.84145682158174
1.922370383546838e-05
-3.30371549188017e-05
-1.841469905417842
1.841444425693959
1.822898489223235e-05
-3.171519389053585e-05
1.841432923890761
1.69280609908043e-05
-2.979885521803343e-05
1.841422482951842
1.537817623946855e-05
-2.736901963400393e-05
1.841413233973469
1.363158398959278e-05
-2.450546227730265e-05
1.841405277014012
1.173403800343158e-05
-2.128407210046856e-05
1.841398686108534
9.724161887313185e-06
-1.777511727851788e-05
1.841393514163763
7.633541186416261e-06
-1.404246988747617e-05
1.841389797363666
5.487376473043839e-06
-1.014365928497796e-05
1.841387558819148
3.305546218692292e-06
-6.13060065584038e-06
1.103952736945307e-06
-2.050839947065108e-06
1.841455826862788
2.888118454080789e-05
-3.526993950815341e-05
-1.84146927663641
1.841443124770032
2.735466142667065e-05
-3.378307355816901e-05
1.84143137400604
2.537464791665317e-05
-3.16752895394681e-05
1.84142073635957
2.302825838995685e-05
-2.903623132510798e-05
1.841411336427464
2.039439960022101e-05
-2.595285855910891e-05
1.841403267137874
1.754161921361325e-05
-2.250655686606394e-05
1.841396595487866
1.452729031208139e-05
-1.877144744697495e-05
1.841391367999045
1.139787748982708e-05
-1.481376497811682e-05
1.841387615533436
8.190026790977324e-06
-1.069213408300131e-05
1.841385357225654
4.932247748424488e-06
-6.458560557920854e-06
1.64699572566895e-06
-2.159957931223921e-06
1.841454300339667
3.856953741166985e-05
-3.867085957764894e-05
-1.841468295234133
1.84144114475653
3.647132997877052e-05
-3.692661149909967e-05
1.841429027616501
3.377983818395676e-05
-3.452245705557469e-05
1.841418102500775
3.061338222962785e-05
-3.15615291814008e-05
1.841408483647061
2.707800280930061e-05
-2.814172667369127e-05
1.841400252808974
2.326481570016273e-05
-2.435269620701979e-05
1.841393466075036
1.924917685023421e-05
-2.027424622244014e-05
1.841388160148353
1.509127766058571e-05
-1.597598925404699e-05
1.841384357754372
1.083780240286289e-05
-1.151798064644738e-05
1.841382071973631
6.524328429090909e-06
-6.952123994397692e-06
2.178214564496621e-06
-2.324133113295291e-06
1.841452202132253
4.825858590251655e-05
-4.32983287397923e-05
-1.841466916126077
1.841438453264752
4.553827424083009e-05
-4.119225242860125e-05
1.841425861160552
4.209566728957515e-05
-3.837596230380502e-05
1.841414567121372
3.808179034802177e-05
-3.49711844709332e-05
1.841404670459971
3.363020370052903e-05
-3.10906704488189e-05
1.841396237170146
2.885408479038573e-05
-2.683507997325301e-05
1.841389308175872
2.384560568651076e-05
-2.229160789291034e-05
1.841383906673085
1.867706645079913e-05
-1.753404414612846e-05
1.841380044280432
1.340328826504589e-05
-1.262394711596416e-05
1.841377725859786
8.064854359002237e-06
-7.612637559262148e-06
2.691884096295275e-06
-2.543763933027065e-06
1.841449481820582
5.788236902404265e-05
-4.922366505155651e-05
-1.841465080885047
1.841435010657776
5.448200338165051e-05
-4.663556504271814e-05
1.841421847283616
5.024496214729589e-05
-4.327735462186221e-05
1.841410115534703
4.53563799557978e-05
-3.929489816303342e-05
1.841399894341048
3.997740831884755e-05
-3.481986395392832e-05
1.841391228691016
3.424233513762347e-05
-2.996660818257389e-05
1.841384139636616
2.825847731229527e-05
-2.483119226428487e-05
1.841378632894888
2.210811167688931e-05
-1.949207109599417e-05
1.841374705846514
1.585180241250234e-05
-1.401201621651388e-05
1.841372352889511
9.532617809803532e-06
-8.440900842421494e-06
3.180869496154682e-06
-2.819051950785811e-06
1.841446081454951
6.732936376252479e-05
-5.652462753502681e-05
-1.84146271992304
1.841430773616541
6.318799743625261e-05
-5.331517818518633e-05
1.841416958701425
5.811457252762198e-05
-4.926862877927565e-05
1.841404736563081
5.232930603014191e-05
-4.456096921678909e-05
1.841394159267876
4.602043310164561e-05
-3.934693565454985e-05
1.84138524483321
3.934177213642746e-05
-3.375709672606121e-05
1.841377989270995
3.241350640650265e-05
-2.78975289136338e-05
1.84137237658563
2.532521376680045e-05
-2.185141621322575e-05
1.841368386661926
1.814034421495754e-05
-1.568198874579703e-05
1.841366001141219
1.090154629765994e-05
-9.436332600598588e-06
3.636436015107831e-06
-3.149726786299088e-06
1.841441940088576
7.643305500202372e-05
-6.527639431550571e-05
-1.841459756124898
1.841425700191667
7.149321867401337e-05
-6.128453881615314e-05
1.841411173434958
6.554964535060276e-05
-5.638492503581254e-05
1.841398427690114
5.885777076589576e-05
-5.079001458443404e-05
1.841387480606887
5.163153260354733e-05
-4.468171817353352e-05
1.841378316567464
4.404189080504406e-05
-3.820901806124249e-05
1.841370900978338
3.621893163112905e-05
-3.148868194395765e-05
1.841365191716099
2.825632237481912e-05
-2.460814133709016e-05
1.84136114786397
2.021715275639493e-05
-1.762976690398182e-05
1.841358736030912
1.214048447878634e-05
-1.059596657051471e-05
4.04818409990419e-06
-3.534715831298339e-06
1.841437000252288
8.496390298627951e-05
-7.553954774053295e-05
-1.841456110487123
1.841419756618304
7.918037658512131e-05
-7.058124138228361e-05
1.841404481560367
7.234982771151622e-05
-6.464531923024954e-05
1.841391201451984
6.476176134959709e-05
-5.798723126662056e-05
1.84137989096512
5.665327324066978e-05
-5.081991658402217e-05
1.841370493608322
4.820912250109893e-05
-4.331246265669671e-05
1.841362938369062
3.956562711018226e-05
-3.559237035930555e-05
1.841357152546453
3.08168657383163e-05
-2.775016962632798e-05
1.841353071195731
2.202206839378826e-05
-1.984540736530456e-05
1.841350643730521
1.321346069758178e-05
-1.191332134662455e-05
4.40414628521958e-06
-3.971773898902521e-06
1.841431216725873
9.262433662396892e-05
-8.734479886765044e-05
-1.841451710303627
1.841412926069435
8.597537085464043e-05
-8.121385699664265e-05
1.841396893493998
7.826859830557696e-05
-7.404176778003107e-05
1.841383092963865
6.982471052416969e-05
-6.613334840390692e-05
1.841371446814373
6.090001684688222e-05
-5.773588334534465e-05
1.841361850112932
5.168871521787357e-05
-4.903951704347025e-05
1.841354189607692
4.232904017325888e-05
-4.018172527153761e-05
1.841348357749111
3.291149040631674e-05
-3.125421715375369e-05
1.841344262588029
2.348789285995426e-05
-2.231105693644096e-05
1.841341834416104
1.408054741069963e-05
-1.337721348555599e-05
4.691081342214925e-06
-4.457096376974653e-06
1.841424567760104
-0.0001006745540195196
-1.841446500291919
9.904900857709962e-05
1.841405219296895
-9.314653131906607e-05
9.154975487978845e-05
1.841388449606232
-8.452656859043843e-05
8.301718615257759e-05
1.841374168270205
-7.517466342146186e-05
7.37981950168452e-05
1.841362235512733
-6.53748844260615e-05
6.416283845059736e-05
1.841352490437853
-5.533840510096872e-05
5.430943567849634e-05
1.841344772057941
-4.521097654133191e-05
4.437336023108763e-05
1.841338934151564
-3.508274082100158e-05
3.443747773388479e-05
1.841334855242592
-2.499893552405722e-05
2.454291137885073e-05
1.841332444950055
-1.497061251067869e-05
1.676204704663598e-05
1.469940437184733e-05
-4.984948449003078e-06
5.578231775671911e-06
4.894993025985204e-06
1.841458643734853
8.414850563232024e-06
-2.814781550826149e-05
-1.841470842133024
1.841447025266264
8.010770451893171e-06
-2.708214978378911e-05
1.8414361903836
7.466862493898136e-06
-2.54993597829624e-05
1.84142630859561
6.806864165399226e-06
-2.346560506438777e-05
1.84141751741949
6.05297011116899e-06
-2.104730665206681e-05
1.841409925552441
5.225122429376076e-06
-1.830873276249565e-05
1.841403616553618
4.340654220144552e-06
-1.531040340953324e-05
1.841398652606432
3.414235212730086e-06
-1.21082712942168e-05
1.841395078012548
2.458062658348904e-06
-8.753591858182744e-06
1.841392922153792
1.482238145301637e-06
-5.293369295022797e-06
4.952794547711531e-07
-1.771252008805291e-06
1.841458239654749
1.682858669482803e-05
-2.908847688460881e-05
-1.841470602068505
1.841446481358297
1.601076194180895e-05
-2.795688906923931e-05
1.84143553038529
1.491520221937648e-05
-2.629622299762051e-05
1.841425554701539
1.358975146323946e-05
-2.417622489182874e-05
1.841416689571838
1.207895608914471e-05
-2.166632080857767e-05
1.841409041084187
1.042267360595861e-05
-1.883313828368021e-05
1.841402690134652
8.655394442313014e-06
-1.573891081108059e-05
1.841397696433831
6.806169802864374e-06
-1.244070642812601e-05
1.841394102188067
4.899025318581403e-06
-8.990378539275519e-06
1.841391935195114
2.953742285828691e-06
-5.435113444344269e-06
9.869014373712756e-07
-1.818439294683791e-06
1.841457421829972
2.523300369606777e-05
-3.098523897548948e-05
-1.841470110947117
1.841445385798579
2.398257544691193e-05
-2.971885573780683e-05
1.841434204934572
2.232047969918946e-05
-2.789970391113489e-05
1.841424043906137
2.031936107058708e-05
-2.560481402606226e-05
1.841415033289335
1.804639183240616e-05
-2.29096795198113e-05
1.841407273805011
1.556125801591764e-05
-1.988565938684223e-05
1.841400840910018
1.291523193280857e-05
-1.659839257802334e-05
1.841395789289346
1.015115476477039e-05
-1.310713185690762e-05
1.841392156905065
7.304137810603502e-06
-9.464864506932361e-06
1.841389968354224
4.402800242565958e-06
-5.719069186952268e-06
1.470884330022988e-06
-1.91295624717064e-06
1.841456171401724
3.360563234622284e-05
-3.386781050317097e-05
-1.841469347079027
1.841443723702824
3.189555954818967e-05
-3.239189674057234e-05
1.841432203815925
2.964616737386523e-05
-3.03282587196473e-05
1.841421770936906
2.695583108547348e-05
-2.776512164908944e-05
1.841412548155532
2.391465878439568e-05
-2.478721421792526e-05
1.841404627778934
2.060195250130916e-05
-2.147301646742108e-05
1.841398076832844
1.708514475140532e-05
-1.789321555736282e-05
1.841392942272392
1.341994581746213e-05
-1.411022240886189e-05
1.841389255567482
9.651427656864468e-06
-1.017856778536489e-05
1.841387036438304
5.815792824659364e-06
-6.145988903419735e-06
1.942615695437535e-06
-2.055027136534867e-06
1.841454461328944
4.190245347036587e-05
-3.777772946852103e-05
-1.841468278748877
1.841441474310674
3.969921056778935e-05
-3.600888520101866e-05
1.841429513479657
3.683792373763203e-05
-3.360688848614061e-05
1.841418729764619
3.344372503200068e-05
-3.0675364825017e-05
1.841409235449262
2.962988261281317e-05
-2.73115809076965e-05
1.8414011109712
2.549488168845933e-05
-2.360353346881929e-05
1.841394411633936
2.112138316647732e-05
-1.962851162894042e-05
1.841389173754219
1.657668295763598e-05
-1.545290414370924e-05
1.841385419932672
1.191430086741164e-05
-1.113300097782854e-05
1.841383163261202
7.176372954575196e-06
-6.716547724972199e-06
2.396581523334377e-06
-2.244838146222477e-06
1.841452258086008
5.005059677642962e-05
-4.276446402210809e-05
-1.841466865429865
1.841438613023824
4.731675509852493e-05
-4.060804737228588e-05
1.841426119280934
4.381809790210423e-05
-3.776378674658058e-05
1.841414915922178
3.970744403900617e-05
-3.435525987798968e-05
1.841405100448311
3.512120003001949e-05
-3.049570946894421e-05
1.841396737472651
3.017626261361181e-05
-2.628501582468243e-05
1.841389866933699
2.496920546675311e-05
-2.180847820982137e-05
1.841384511372146
1.957723254044565e-05
-1.713706168882116e-05
1.841380682004732
1.406041606433206e-05
-1.232876619875822e-05
1.841378383469748
8.4648141078566e-06
-7.430808505389474e-06
2.826153242895578e-06
-2.482360455058593e-06
1.841449524244346
5.794130780636341e-05
-4.887980434994688e-05
-1.841465059778056
1.841435114366627
5.463923176933646e-05
-4.622777705655567e-05
1.841422008627072
5.048089248838039e-05
-4.282568463409564e-05
1.841410329678183
4.564738363917057e-05
-3.882196134729438e-05
1.841400155510911
4.029779010970074e-05
-3.434936039323783e-05
1.841391530415516
3.456617795727368e-05
-2.952191904017604e-05
1.84138447496079
2.856126189463376e-05
-2.443413319882181e-05
1.841378994555662
2.236806348194549e-05