/*--------------------------------*- C++ -*----------------------------------*\
  =========                 |
  \\      /  F ield         | OpenFOAM: The Open Source CFD Toolbox
   \\    /   O peration     | Website:  https://openfoam.org
    \\  /    A nd           | Version:  7
     \\/     M anipulation  |
\*---------------------------------------------------------------------------*/
FoamFile
{
    version     2.0;
    format      ascii;
    class       volVectorField;
    location    "0";
    object      U;
}
// * * * * * * * * * * * * * * * * * * * * * * * * * * * * * * * * * * * * * //

dimensions      [0 1 -1 0 0 0 0];

internalField   nonuniform List<vector> 
12671
(
(1.000082753112433 2.668461661682649e-06 -1.804732255310678e-05)
(1.000076950393478 2.354236918997273e-06 -1.613424016181659e-05)
(1.000071904954893 2.017972048060752e-06 -1.399433403509451e-05)
(1.00006765776097 1.66622366710977e-06 -1.167371476905744e-05)
(1.00006423649796 1.304066947197808e-06 -9.213664774669597e-06)
(1.000061658938066 9.352664704422575e-07 -6.650798431272153e-06)
(1.000059935794745 5.625148250991408e-07 -4.017665391251035e-06)
(1.000059072945186 1.877145409399014e-07 -1.343685851416253e-06)
(1.000088726791221 8.868522513097121e-06 -2.037791845808365e-05)
(1.000082154813481 8.011020157744651e-06 -1.866071228011765e-05)
(1.000076299903863 7.064343923444557e-06 -1.666355949525567e-05)
(1.000071216941641 6.05282057491429e-06 -1.443898993277163e-05)
(1.000066943855869 4.99602673015888e-06 -1.203441492683694e-05)
(1.000063505540763 3.909031484414125e-06 -9.491815032246177e-06)
(1.000060917385944 2.802930697692232e-06 -6.848004277175348e-06)
(1.000059188242815 1.685579181938353e-06 -4.135345695252541e-06)
(1.00005832271582 5.624476642733174e-07 -1.382800070717233e-06)
(1.000087658273402 1.481451685523223e-05 -2.178238454808589e-05)
(1.000080948933843 1.336800286682584e-05 -1.989872507439795e-05)
(1.000074992193894 1.177717607712432e-05 -1.773052860203504e-05)
(1.000069836637701 1.008254393131883e-05 -1.533429175658721e-05)
(1.000065513971879 8.316405137232491e-06 -1.275997797818984e-05)
(1.000062043401928 6.503341345879495e-06 -1.00508885184273e-05)
(1.000059435485763 4.661179728687489e-06 -7.244146367056594e-06)
(1.000057695311712 2.802266852552386e-06 -4.371644456597944e-06)
(1.000056824918342 9.34933486161161e-07 -1.461324472791656e-06)
(1.000093681049695 2.260049366398624e-05 -2.570670593293755e-05)
(1.000086026619959 2.0801307952835e-05 -2.392512864495422e-05)
(1.000079117472703 1.874070346818191e-05 -2.178311343232609e-05)
(1.000073014444929 1.648728374747557e-05 -1.935114517725999e-05)
(1.000067756170702 1.409760043422181e-05 -1.669163649968977e-05)
(1.000063364653283 1.161611863574062e-05 -1.385824363639437e-05)
(1.000059850315355 9.076091581800096e-06 -1.089605121511728e-05)
(1.000057216311451 6.501058412703575e-06 -7.842414741397662e-06)
(1.000055461996573 3.90673706846939e-06 -4.72827554001265e-06)
(1.000054585515481 1.303147028411391e-06 -1.579797182290486e-06)
(1.000100539628204 3.117406558350217e-05 -3.06324588501319e-05)
(1.000091792536207 2.921253383601266e-05 -2.897380651301059e-05)
(1.000083798483205 2.682555556559194e-05 -2.684727724833182e-05)
(1.000076634909638 2.411777709410141e-05 -2.434464313796051e-05)
(1.000070349090861 2.117827501047339e-05 -2.154769484299081e-05)
(1.000064965472588 1.807929224684954e-05 -1.852662803341194e-05)
(1.000060492463026 1.487656247688399e-05 -1.533973695091998e-05)
(1.000056928341705 1.161075786540741e-05 -1.203409149987659e-05)
(1.00005426613125 8.309668460349832e-06 -8.646910895304595e-06)
(1.000052497400327 4.990814980081469e-06 -5.207402550791405e-06)
(1.000051615034243 1.664290980406589e-06 -1.738889779124578e-06)
(1.000098611255658 3.841670894170341e-05 -3.527376485665766e-05)
(1.000089332539677 3.588964738934318e-05 -3.318793427575793e-05)
(1.000080931863216 3.286361306218315e-05 -3.059980338265816e-05)
(1.000073470192147 2.94699560398877e-05 -2.762064695889118e-05)
(1.000066975960082 2.5818423151896e-05 -2.434655634597771e-05)
(1.000061454458169 2.199622275853499e-05 -2.08571981680783e-05)
(1.000056896118901 1.806900900911717e-05 -1.721613517293314e-05)
(1.000053283421338 1.408314875067097e-05 -1.347223983172451e-05)
(1.000050596368566 1.00687620660033e-05 -9.661816855077809e-06)
(1.000048816619093 6.043171576549538e-06 -5.811144412508447e-06)
(1.000047930409521 2.01452637669177e-06 -1.939244121485204e-06)
(1.000096133866755 4.575201581524832e-05 -4.107578589027595e-05)
(1.000086239440328 4.258721270061579e-05 -3.842625540961794e-05)
(1.000077378791856 3.8865038049909e-05 -3.523959993911848e-05)
(1.000069589719727 3.474472575161653e-05 -3.165143309147325e-05)
(1.00006287535758 3.035641795876872e-05 -2.777506119471399e-05)
(1.000057216058447 2.58010008494908e-05 -2.370097335012843e-05)
(1.000052579389018 2.115213285502131e-05 -1.949815488270632e-05)
(1.000048928094762 1.645962631266192e-05 -1.521656503346724e-05)
(1.000046226154077 1.175355192173383e-05 -1.089027343599989e-05)
(1.000044443164638 7.048642822794906e-06 -6.540915505651315e-06)
(1.000043557336292 2.348751188776552e-06 -2.181253990792175e-06)
(1.000093023992224 5.310280482790394e-05 -4.814805097861694e-05)
(1.000082445561912 4.922243329077874e-05 -4.476974402201066e-05)
(1.000073089376268 4.474602963916268e-05 -4.082385099076475e-05)
(1.000064961572056 3.986123360257904e-05 -3.647531620443174e-05)
(1.000058032235179 3.471753319993475e-05 -3.185727339606196e-05)
(1.000052250173065 2.942744212021547e-05 -2.707182031368599e-05)
(1.000047554744364 2.407003312373813e-05 -2.219283569990242e-05)
(1.000043884840405 1.869576534583231e-05 -1.72699418952982e-05)
(1.000041185385076 1.333185994484858e-05 -1.233298029918751e-05)
(1.00003941181836 7.987761379938517e-06 -7.39660603783246e-06)
(1.000038533015509 2.660451372282433e-06 -2.464795827689124e-06)
(1.000089192418099 6.033891663448371e-05 -5.659934172741431e-05)
(1.000077882665138 5.566612575075881e-05 -5.229445511423247e-05)
(1.000068017592168 5.038331471772026e-05 -4.740232616100736e-05)
(1.000059561223288 4.470592661733938e-05 -4.212206038367529e-05)
(1.000052441566097 3.880065176048261e-05 -3.660859250742547e-05)
(1.00004656855837 3.27886388823763e-05 -3.097554572432384e-05)
(1.000041847712244 2.675105052104446e-05 -2.530023265639988e-05)
(1.000038189921582 2.073567541577488e-05 -1.962962663572808e-05)
(1.000035518150111 1.476375979077248e-05 -1.398654612923692e-05)
(1.000033771756065 8.836592053194285e-06 -8.375627325109103e-06)
(1.00003290912354 2.941654197376903e-06 -2.788916349692261e-06)
(1.000084551737183 6.726694085564336e-05 -6.652411051322188e-05)
(1.000072489959995 6.173546115853073e-05 -6.105961100433292e-05)
(1.000062129177135 5.56093666147699e-05 -5.500730251316737e-05)
(1.000053378909099 4.912968186444618e-05 -4.860462040374556e-05)
(1.000046114947444 4.247677776606262e-05 -4.202917957549352e-05)
(1.000040200571825 3.577639594243297e-05 -3.540481076585033e-05)
(1.000035501780898 2.910775567657624e-05 -2.880960656761993e-05)
(1.000031897549674 2.251225646285438e-05 -2.228452091386085e-05)
(1.000029286301713 1.600189443998114e-05 -1.584166043344665e-05)
(1.000027589712767 9.566974073627377e-06 -9.471865700896893e-06)
(1.000026754769258 3.183017422032288e-06 -3.151492400575036e-06)
(1.00007902750796 7.36219921684191e-05 -7.798401049690191e-05)
(1.000066225090898 6.718920178347557e-05 -7.109214568763293e-05)
(1.000055411812875 6.021025269557838e-05 -6.364103756313188e-05)
(1.00004642863444 5.294747112979276e-05 -5.590927153970955e-05)
(1.000039088280175 4.558983960993267e-05 -4.809637956732922e-05)
(1.000033199536281 3.826263031311178e-05 -4.033345944781703e-05)
(1.000028583572765 3.103853651132989e-05 -3.269529943715996e-05)
(1.000104706755024 2.976493630373386e-06 -2.057894240121918e-05)
(1.000097485825113 2.815388905870019e-06 -1.974251508545393e-05)
(1.000090728233554 2.608154159587322e-06 -1.853810887048057e-05)
(1.000084536680582 2.363962057967282e-06 -1.701671979825748e-05)
(1.000078991984935 2.091070314190242e-06 -1.522838595524599e-05)
(1.000074155746933 1.796595874690824e-06 -1.322046690885193e-05)
(1.000070073379368 1.486433134900231e-06 -1.10365921022204e-05)
(1.000066777179541 1.165287973494011e-06 -8.716215107136638e-06)
(1.000064289188413 8.367997498030033e-07 -6.294687017165053e-06)
(1.000062623651673 5.037260520425995e-07 -3.803749398031836e-06)
(1.000061788955451 1.681694960226837e-07 -1.27234573540143e-06)
(1.000104440371791 8.943576088681313e-06 -2.133532447177102e-05)
(1.000097117485642 8.454916929613387e-06 -2.044043211919389e-05)
(1.000090276806707 7.828604458922633e-06 -1.916913479049762e-05)
(1.000084019596737 7.092350120989412e-06 -1.757547497331091e-05)
(1.000078424618751 6.271013704018903e-06 -1.57119406805072e-05)
(1.000073551109754 5.385943592037442e-06 -1.362772219042491e-05)
(1.000069442071467 4.454750957220224e-06 -1.136768845338123e-05)
(1.000066127546156 3.491431021411389e-06 -8.972005711334429e-06)
(1.000063627626491 2.506745352557323e-06 -6.476296124917281e-06)
(1.000061955021419 1.508788812858669e-06 -3.912226379691823e-06)
(1.000061117059901 5.036790330045909e-07 -1.308418421264871e-06)
(1.000103896488723 1.495028559706725e-05 -2.28662769212969e-05)
(1.000096370853483 1.411815257129447e-05 -2.185101808722538e-05)
(1.000089365666746 1.305912634313439e-05 -2.044278961617909e-05)
(1.000082979089828 1.182001734267079e-05 -1.870183601382352e-05)
(1.000077285578406 1.044252817768489e-05 -1.668559420959649e-05)
(1.000072339484186 8.962214204283939e-06 -1.444691556035111e-05)
(1.000068178866796 7.408174453009467e-06 -1.203311341701187e-05)
(1.000064829173936 5.80331788793209e-06 -9.485721966943885e-06)
(1.000062306546204 4.165054752517035e-06 -6.840834581263506e-06)
(1.000060620585353 2.506283123181641e-06 -4.129890250031941e-06)
(1.000059776487608 8.365674812824236e-07 -1.380786696256259e-06)
(1.000103053013404 2.101405164239644e-05 -2.52075078457829e-05)
(1.000095226326388 1.981234041221609e-05 -2.400305206995418e-05)
(1.000087978671479 1.829853973104049e-05 -2.238154903040229e-05)
(1.000081402998572 1.65394244266748e-05 -2.041281086933151e-05)
(1.000075566815613 1.45938753448593e-05 -1.816180702129972e-05)
(1.000070516756028 1.251155783880244e-05 -1.568686993881212e-05)
(1.00006628317515 1.033263527019827e-05 -1.303888436863531e-05)
(1.000062884426456 8.088277773336636e-06 -1.026128674962703e-05)
(1.000060330591726 5.801743033834249e-06 -7.390696269694913e-06)
(1.000058626534148 3.489842508314179e-06 -4.458013672177618e-06)
(1.000057774209299 1.164649945481235e-06 -1.489847501386935e-06)
(1.000101877248044 2.713839725297516e-05 -2.841077238540219e-05)
(1.000093655341572 2.55316132276491e-05 -2.693778354478919e-05)
(1.000086092750762 2.353368245941913e-05 -2.50172222827637e-05)
(1.000079274425443 2.123240642217117e-05 -2.273212074456033e-05)
(1.000073257711818 1.870417326975273e-05 -2.015766278474624e-05)
(1.000068078244111 1.601250617454116e-05 -1.73594395251426e-05)
(1.000063755586731 1.32079551819046e-05 -1.439289620253915e-05)
(1.0000602982817 1.03289867940106e-05 -1.130370966254124e-05)
(1.000057708110939 7.403564115277229e-06 -8.128852530847555e-06)
(1.000055983492265 4.451171485191333e-06 -4.898136923558971e-06)
(1.000055121995152 1.485103428663105e-06 -1.636073875845704e-06)
(1.000100326673068 3.330660732933755e-05 -3.254132480379222e-05)
(1.000091621611594 3.12512849318199e-05 -3.070633357353955e-05)
(1.000083679464674 2.873441194037382e-05 -2.838844815593738e-05)
(1.000076573489383 2.586591353795658e-05 -2.568789938954021e-05)
(1.000070346915365 2.273986504233243e-05 -2.269284123441591e-05)
(1.00006502053794 1.943312839151168e-05 -1.94777947265331e-05)
(1.000060599655769 1.600563320078763e-05 -1.610353262280499e-05)
(1.000057080035389 1.250182560282011e-05 -1.261802338264905e-05)
(1.000054452776417 8.952882893617329e-06 -9.058104473029491e-06)
(1.000052708073461 5.379387812399926e-06 -5.451624800627215e-06)
(1.000051837934385 1.794250806246896e-06 -1.819868335291145e-06)
(1.000098350422186 3.947482798153905e-05 -3.767389616606913e-05)
(1.000089083146182 3.692187590166331e-05 -3.536575318225772e-05)
(1.000080707379368 3.384857863252983e-05 -3.253701421819101e-05)
(1.000073279878544 3.038789606647534e-05 -2.930939512148796e-05)
(1.000066824926671 2.665143864094343e-05 -2.578677235542946e-05)
(1.000061344012269 2.272848827480419e-05 -2.205405579829429e-05)
(1.000056824283943 1.868693656120911e-05 -1.817777731338828e-05)
(1.000053245531393 1.45755071598749e-05 -1.42078535489517e-05)
(1.000050585673149 1.042675758414136e-05 -1.018008594768232e-05)
(1.000048824860178 6.260497461188478e-06 -6.119079500062401e-06)
(1.000047948356536 2.087390130368786e-06 -2.041369061014828e-06)
(1.00009589181997 4.556475816119839e-05 -4.388668718571346e-05)
(1.000085995362244 4.246309658506962e-05 -4.097337463915273e-05)
(1.000077145484838 3.879722958405539e-05 -3.750275671781237e-05)
(1.000069376349391 3.472359680970973e-05 -3.36225290526362e-05)
(1.000062687507572 3.037064694721589e-05 -2.94548951574328e-05)
(1.000057056035861 2.583862338816124e-05 -2.509624542308285e-05)
(1.000052446674656 2.120148054771223e-05 -2.061882331043808e-05)
(1.000048819856411 1.651011978571984e-05 -1.607363373568895e-05)
(1.000046137766718 1.179633589358188e-05 -1.14940329244418e-05)
(1.000044368706007 7.077064271529526e-06 -6.89962097933782e-06)
(1.000043490046793 2.358689851527095e-06 -2.300213281872344e-06)
(1.000092892423995 5.145639693861725e-05 -5.125280720330546e-05)
(1.000082315617606 4.775827452170174e-05 -4.757907979373737e-05)
(1.000072967879593 4.347051102080404e-05 -4.331681924323483e-05)
(1.000064853295906 3.877267815300588e-05 -3.864420041266259e-05)
(1.000057939953248 3.380859793090696e-05 -3.370398819414323e-05)
(1.00005217484587 2.868735285117407e-05 -2.860457342390695e-05)
(1.000047495780341 2.348653986451125e-05 -2.342321644073067e-05)
(1.000043840386738 1.825676732478234e-05 -1.821050841589199e-05)
(1.000041152617634 1.302669045728348e-05 -1.299535609568679e-05)
(1.000039387214135 7.808147627710589e-06 -7.790059824495746e-06)
(1.000038512602413 2.601174037692805e-06 -2.595266540891127e-06)
(1.000089298033096 5.698172313700799e-05 -5.982862662754411e-05)
(1.000078009476328 5.265004124337168e-05 -5.521518956452835e-05)
(1.00006815988847 4.772499171289394e-05 -4.999314642340921e-05)
(1.000059714436301 4.240779373160029e-05 -4.437532998508011e-05)
(1.00005260218227 3.68552105520553e-05 -3.85266306402455e-05)
(1.000046733977795 3.118230154410529e-05 -3.256714475475671e-05)
(1.000042016089129 2.546738354329585e-05 -2.657763165444094e-05)
(1.000038360007004 1.975801596686e-05 -2.060601240239114e-05)
(1.000035689147021 1.407723326381175e-05 -1.46740860632226e-05)
(1.000033943189588 8.429587799360353e-06 -8.784006037830464e-06)
(1.000033080725131 2.80682344384651e-06 -2.924332615948434e-06)
(1.00008506703798 6.192069468169409e-05 -6.96387158122483e-05)
(1.00007305888618 5.693847407194334e-05 -6.388389804656837e-05)
(1.00006272563208 5.138339262090011e-05 -5.751829695340418e-05)
(1.000053983514746 4.547538631345985e-05 -5.079281471270754e-05)
(1.000046714461061 3.938063445630647e-05 -4.389500255903437e-05)
(1.000040787018862 3.321658291408177e-05 -3.695529909186792e-05)
(1.000036071494764 2.705894871352637e-05 -3.005546789793379e-05)
(1.000032450236459 2.094936338624255e-05 -2.32376781162017e-05)
(1.000029824189467 1.490284670364445e-05 -1.651330119520329e-05)
(1.000105319036503 2.607178335383823e-06 -1.888926967841263e-05)
(1.000098491732477 2.474016284159151e-06 -1.814363231655846e-05)
(1.000092078333603 2.298973310893788e-06 -1.70563032692583e-05)
(1.000086181039739 2.089750944381636e-06 -1.567309111901446e-05)
(1.000080882226827 1.853412381569454e-06 -1.403937071305641e-05)
(1.000076246455669 1.596171933936745e-06 -1.219848403417458e-05)
(1.000072322878906 1.323302446127029e-06 -1.019072767479407e-05)
(1.000069147756798 1.039140964081209e-06 -8.052883160802905e-06)
(1.000066746848979 7.471713229157849e-07 -5.818218758242623e-06)
(1.000065137505358 4.501636654823004e-07 -3.51687782233767e-06)
(1.000064330329434 1.503535448471405e-07 -1.176564155327894e-06)
(1.000105102590404 7.827408256222241e-06 -1.955685383872098e-05)
(1.000098183527453 7.424128560929182e-06 -1.876161199070444e-05)
(1.000091694068264 6.895817455261602e-06 -1.761680029562498e-05)
(1.00008573547881 6.265721220303415e-06 -1.617086001411688e-05)
(1.000080388647818 5.555092516674389e-06 -1.447131980626258e-05)
(1.000075716345734 4.782570184868583e-06 -1.256316459434944e-05)
(1.000071765847937 3.963915368426197e-06 -1.048783760737577e-05)
(1.000068571625675 3.112042236529027e-06 -8.282817722905898e-06)
(1.00006615787168 2.237277863166244e-06 -5.981689131018289e-06)
(1.00006454068758 1.347790442384341e-06 -3.614609144247952e-06)
(1.000063729812221 4.501338119328958e-07 -1.209078435152755e-06)
(1.000104661726082 1.306296537804057e-05 -2.090592350498734e-05)
(1.000097560141677 1.237831775039182e-05 -2.000884593711405e-05)
(1.000090919926264 1.148737353552797e-05 -1.874664994510202e-05)
(1.0000848403148 1.042933354560831e-05 -1.717313219778959e-05)
(1.000079399075792 9.239814509302909e-06 -1.53401714291236e-05)
(1.000074655278521 7.949855192559598e-06 -1.3296043092026e-05)
(1.000070652350958 6.585523653597121e-06 -1.108446019799498e-05)
(1.000067421119293 5.168014556323288e-06 -8.744253767355087e-06)
(1.000064982597185 3.714122436076214e-06 -6.309585383418287e-06)
(1.000063350361307 2.236987156862137e-06 -3.810579161586661e-06)
(1.000062532405177 7.470247960389674e-07 -1.274265094304369e-06)
(1.000103980694614 1.831635984054351e-05 -2.296357348510263e-05)
(1.000096607935612 1.73320580109604e-05 -2.190716370880238e-05)
(1.00008974508406 1.606350269111398e-05 -2.046286774926033e-05)
(1.000083487919784 1.456647999583544e-05 -1.869273250537644e-05)
(1.000077909169464 1.289121272327538e-05 -1.665525995327712e-05)
(1.000073062054878 1.108105775675816e-05 -1.440366520255591e-05)
(1.0000689840073 9.172057893215014e-06 -1.198500115280191e-05)
(1.000065700224458 7.19317575405028e-06 -9.440016364815981e-06)
(1.000063226844281 5.167039822190829e-06 -6.803599940318112e-06)
(1.00006157358994 3.111053013721887e-06 -4.105672479830342e-06)
(1.000060745800268 1.038742449484616e-06 -1.37239714664493e-06)
(1.00010303642359 2.357832658962817e-05 -2.576857592642198e-05)
(1.000095307284527 2.2269849421702e-05 -2.448743291538757e-05)
(1.000088154348248 2.060412432917606e-05 -2.278918095732758e-05)
(1.000081668024833 1.865429255541204e-05 -2.074724963401345e-05)
(1.000075913653552 1.648541814706591e-05 -1.842913114313831e-05)
(1.000070936123691 1.415297728838175e-05 -1.58946127072996e-05)
(1.000066764468956 1.170246249920225e-05 -1.319506279065504e-05)
(1.000063416101222 9.169852066728052e-06 -1.037356871620167e-05)
(1.000060900474445 6.582709963856012e-06 -7.465724693168943e-06)
(1.000059222063934 3.961717739870136e-06 -4.500891106105824e-06)
(1.000058382609714 1.32248368805987e-06 -1.503776390528937e-06)
(1.000101799355409 2.882275931195353e-05 -2.936885962923088e-05)
(1.00009363373335 2.716067883713909e-05 -2.778709608737142e-05)
(1.000086129527195 2.50752571295655e-05 -2.575372157481709e-05)
(1.000079369213602 2.265777900691526e-05 -2.335695592016061e-05)
(1.000073407854196 1.998827395353762e-05 -2.067573238746372e-05)
(1.000068279099231 1.713394161838192e-05 -1.777798514880224e-05)
(1.000064000882079 1.414895357295158e-05 -1.472022136883572e-05)
(1.000060580471922 1.107528543984648e-05 -1.154807894759865e-05)
(1.000058018709954 7.944270313299758e-06 -8.297596280283765e-06)
(1.000056313363665 4.778623907908456e-06 -4.9969670003438e-06)
(1.00005546159884 1.594756363467011e-06 -1.668605230973948e-06)
(1.000100234856949 3.400146192049048e-05 -3.381770502530754e-05)
(1.000091559782343 3.195349159741601e-05 -3.184655649990364e-05)
(1.000083651448419 2.942521846775788e-05 -2.938572046296e-05)
(1.000076581041657 2.652671645707567e-05 -2.654188579649244e-05)
(1.000070389816164 2.33528621098754e-05 -2.340791436812159e-05)
(1.000065096803311 1.998189119941909e-05 -2.006133438869898e-05)
(1.000060705812777 1.647558178570798e-05 -1.656438427172209e-05)
(1.000057211417961 1.288060130383112e-05 -1.296517873290292e-05)
(1.000054603812912 9.230626025834643e-06 -9.299631737930113e-06)
(1.000052872549985 5.54893249469911e-06 -5.593853242101285e-06)
(1.000052009229445 1.851251065558349e-06 -1.866818769044512e-06)
(1.000098305437289 3.903893268175253e-05 -3.916831903552189e-05)
(1.000089057489896 3.6572916443736e-05 -3.670418066781255e-05)
(1.000080702752054 3.358123157700212e-05 -3.371105625798998e-05)
(1.000073296857243 3.019304240781894e-05 -3.031799289870961e-05)
(1.000066863028939 2.651755965270342e-05 -2.663421140115417e-05)
(1.000061401818907 2.264297743669267e-05 -2.274804975359749e-05)
(1.000056899592183 1.863725688490567e-05 -1.872774150536313e-05)
(1.000053335516162 1.455015851921719e-05 -1.462343452925543e-05)
(1.000050687041145 1.041604443418782e-05 -1.046997430353973e-05)
(1.000048933988704 6.257103186981757e-06 -6.290107479703254e-06)
(1.00004806141528 2.086771839578043e-06 -2.097882035814672e-06)
(1.000095974036992 4.382762221234098e-05 -4.546644835023964e-05)
(1.000086102081239 4.091567457867609e-05 -4.238970725434235e-05)
(1.000077271574383 3.744683966573212e-05 -3.874655065844195e-05)
(1.000069517369732 3.35690970810876e-05 -3.469235038623224e-05)
(1.000062839751193 2.94049257249384e-05 -3.035491247103404e-05)
(1.000057216500543 2.505092171675435e-05 -2.583423232046222e-05)
(1.000052612993859 2.057942759323247e-05 -2.12043605833934e-05)
(1.000048990205511 1.604142608244626e-05 -1.651657952552332e-05)
(1.00004631075758 1.147013332557872e-05 -1.180328842664837e-05)
(1.00004454327739 6.884907528339832e-06 -7.082192893599652e-06)
(1.000043665354418 2.295244887065308e-06 -2.360561046239019e-06)
(1.000093208633014 4.822439265278281e-05 -5.274077134391898e-05)
(1.00008267670735 4.484832796855612e-05 -4.891594962686001e-05)
(1.000073356174556 4.090069327188318e-05 -4.449300182863706e-05)
(1.000065254943302 3.654718848296237e-05 -3.965745277796207e-05)
(1.000058344853574 3.192179860302673e-05 -3.455751679536542e-05)
(1.000052576320775 2.712743007190381e-05 -2.930516455151856e-05)
(1.000047890096549 2.223863809518969e-05 -2.39795269595942e-05)
(1.000044226221894 1.730554498755129e-05 -1.863159351746684e-05)
(1.000041530522591 1.235830844390425e-05 -1.328946987305684e-05)
(1.000039759100266 7.411734960438496e-06 -7.96373740648707e-06)
(1.000038881262864 2.469824745322193e-06 -2.652681435829414e-06)
(1.00008998830723 5.204922735730384e-05 -6.099102243650697e-05)
(1.000078778381859 4.820725397265287e-05 -5.626888372816267e-05)
(1.000068970434899 4.379743284855052e-05 -5.092712984343798e-05)
(1.000060538475063 3.9001047627027e-05 -4.518483109429944e-05)
(1.000053419992782 3.396103397997795e-05 -3.921179147210337e-05)
(1.000047533340036 2.878398063467289e-05 -3.313157695023928e-05)
(1.000042791108775 2.354418631336668e-05 -2.702700297009943e-05)
(1.000039109875859 1.82887284173825e-05 -2.094676818815448e-05)
(1.000036416947553 1.304284770444437e-05 -1.491236977144991e-05)
(1.000034654793691 7.815245525491803e-06 -8.924810496497807e-06)
(1.000033783794707 2.603115024064578e-06 -2.970894444185259e-06)
(1.000105851765841 2.285067178808751e-06 -1.689726905788952e-05)
(1.000099384254608 2.175338527884768e-06 -1.624837438824882e-05)
(1.000093287008366 2.02763938212026e-06 -1.529064537907491e-05)
(1.000087661360731 1.848415702085456e-06 -1.406422486150832e-05)
(1.00008259068513 1.643694467844756e-06 -1.260922999762887e-05)
(1.000078141841508 1.418891008525961e-06 -1.09643085793406e-05)
(1.000074367037415 1.178712133369724e-06 -9.165698255088357e-06)
(1.00007130584949 9.271414626263773e-07 -7.246758506486501e-06)
(1.000068987193941 6.674911489166307e-07 -5.237919304003431e-06)
(1.000067431079654 4.02504325938207e-07 -3.166975632490332e-06)
(1.000066650020357 1.344939918717381e-07 -1.059650691411654e-06)
(1.000105676847255 6.854898910593905e-06 -1.747283394670777e-05)
(1.000099126826812 6.523088535946384e-06 -1.678277333376917e-05)
(1.00009296008554 6.077888258659247e-06 -1.577674074482167e-05)
(1.000087277415815 5.53873614653124e-06 -1.449710002622138e-05)
(1.000082161160436 4.923755819638381e-06 -1.298581399090526e-05)
(1.000077676859174 4.249185996350912e-06 -1.128296542254036e-05)
(1.000073875287869 3.52909941527512e-06 -9.425820400199534e-06)
(1.000070794628506 2.775368607369685e-06 -7.448393337430786e-06)
(1.000068462556805 1.997829918774236e-06 -5.381448138071325e-06)
(1.000066898082497 1.204598140311165e-06 -3.252857090010738e-06)
(1.000066113022037 4.024887747470406e-07 -1.088234787408062e-06)
(1.000105321400672 1.142189739063111e-05 -1.863426894852461e-05)
(1.000098607243956 1.086025971993854e-05 -1.785991761582569e-05)
(1.000092302655977 1.011141362243957e-05 -1.675546690664971e-05)
(1.00008650722829 9.208077976544781e-06 -1.536779400634891e-05)
(1.000081301134979 8.180590168352183e-06 -1.374258883269784e-05)
(1.000076747185104 7.055981431802589e-06 -1.192281082312845e-05)
(1.000072893220025 5.857540780900787e-06 -9.947767505698417e-06)
(1.000069774579994 4.604790723107666e-06 -7.852752236182978e-06)
(1.000067416423474 3.313789985668028e-06 -5.669155852086472e-06)
(1.00006583573851 1.997681811276635e-06 -3.424958365079374e-06)
(1.000065042933442 6.674159587005164e-07 -1.145507113339647e-06)
(1.000104774415032 1.597773306320814e-05 -2.040150096089684e-05)
(1.000097816343043 1.517380389953185e-05 -1.949583044374024e-05)
(1.000091307903797 1.411163261035536e-05 -1.823926381178132e-05)
(1.000085346592362 1.283765993893008e-05 -1.668562054474295e-05)
(1.000080009063891 1.13945956416315e-05 -1.488626462576726e-05)
(1.000075353809787 9.82018216631579e-06 -1.288848168968648e-05)
(1.00007142409716 8.146654013385664e-06 -1.073459862556968e-05)
(1.000068250877711 6.40077300493234e-06 -8.46174703152548e-06)
(1.000065855447893 4.604313034425925e-06 -6.102154245114819e-06)
(1.00006425170847 2.774876565668949e-06 -3.683844249846471e-06)
(1.000063447924266 9.269418172586763e-07 -1.231638822929444e-06)
(1.000104019934919 2.050435088984956e-05 -2.280264137375282e-05)
(1.000096741143504 1.944168326425284e-05 -2.171281995699808e-05)
(1.000089966512017 1.805386956907029e-05 -2.024517678600442e-05)
(1.000083790191322 1.640160360086572e-05 -1.846309198948584e-05)
(1.000078283657207 1.454011253458686e-05 -1.64256331940199e-05)
(1.000073499243476 1.25176748015319e-05 -1.418586003058276e-05)
(1.000069473810865 1.037504852942495e-05 -1.179003361418806e-05)
(1.000066232239015 8.145636262203374e-06 -9.27757920651686e-06)
(1.000063790527035 5.856210763057725e-06 -6.681641652711534e-06)
(1.000062158367293 3.52804501763696e-06 -4.030083359192357e-06)
(1.000061341115059 1.178316484133504e-06 -1.346794335455105e-06)
(1.000103037851298 2.497000933425922e-05 -2.587166130330074e-05)
(1.000095365861723 2.362933550421454e-05 -2.453726599105365e-05)
(1.000088267824134 2.190228173837641e-05 -2.279282100987451e-05)
(1.000081832835327 1.986432608393722e-05 -2.071410695170269e-05)
(1.000076125135092 1.758326813145885e-05 -1.837000502185196e-05)
(1.000071188745781 1.511759521995901e-05 -1.582076925537181e-05)
(1.000067052058621 1.251597880988571e-05 -1.311740731817762e-05)
(1.000063732039944 9.817658085842592e-06 -1.030194359572937e-05)
(1.000061237856648 7.053479168808212e-06 -7.408345055627626e-06)
(1.000059573814191 4.247391314367235e-06 -4.463918250740962e-06)
(1.000058741562765 1.418242628486338e-06 -1.49102224114226e-06)
(1.000101805144009 2.932538788239653e-05 -2.964499646698278e-05)
(1.000093673415908 2.768632401615465e-05 -2.799645616107366e-05)
(1.000086201502596 2.5607053425002e-05 -2.590152564751065e-05)
(1.000079471177714 2.317825062350197e-05 -2.345144922248088e-05)
(1.000073536926342 2.048015680518263e-05 -2.072708326144171e-05)
(1.000068431954154 1.758092136192152e-05 -1.779722318425418e-05)
(1.00006417387373 1.453629070589372e-05 -1.471827996979413e-05)
(1.000060769739374 1.139031745035913e-05 -1.153497959866819e-05)
(1.000058220260263 8.176794631547919e-06 -8.281790258367241e-06)
(1.000056523130752 4.92117339315296e-06 -4.984835862749281e-06)
(1.000055675481116 1.642782011050793e-06 -1.664113558109281e-06)
(1.000100297718776 3.349998829032878e-05 -3.415687766927829e-05)
(1.000091647527266 3.154340473391442e-05 -3.2114337971613e-05)
(1.000083759750742 2.910208402423301e-05 -2.958658200136171e-05)
(1.000076705938707 2.628204419885143e-05 -2.668356571978581e-05)
(1.00007052780583 2.317554176748889e-05 -2.350027249676699e-05)
(1.000065244879682 1.985955053088069e-05 -2.011524361099801e-05)
(1.000060861454709 1.639579079660499e-05 -1.659072820275897e-05)
(1.00005737254387 1.283188325051528e-05 -1.297399557690775e-05)
(1.000054768712591 9.203262894602383e-06 -9.299421841080279e-06)
(1.00005303980157 5.535569632600784e-06 -5.591052584945284e-06)
(1.00005217760736 1.8473139215622e-06 -1.865432336900296e-06)
(1.000098492984129 3.739921419166132e-05 -3.943320797195038e-05)
(1.000089275511643 3.51103709561212e-05 -3.690609176494191e-05)
(1.000080940142062 3.230349596557116e-05 -3.385456416704641e-05)
(1.000073544635458 2.909966613533213e-05 -3.041063614528357e-05)
(1.000067114432674 2.560231734306173e-05 -2.668546191020303e-05)
(1.000061652203182 2.189605538207246e-05 -2.276829895320172e-05)
(1.000057146206449 1.80471906448754e-05 -1.872737135919911e-05)
(1.000053577211472 1.410545980104571e-05 -1.461201552837292e-05)
(1.000050923946646 1.010649861756486e-05 -1.04556111438407e-05)
(1.000049167181779 6.074745203716331e-06 -6.278938078974009e-06)
(1.000048292597562 2.026560373395881e-06 -2.093726829379559e-06)
(1.00009637328085 4.090269997539891e-05 -4.548390267158426e-05)
(1.00008655180904 3.82751798946234e-05 -4.237152648873681e-05)
(1.000077749045922 3.510939184264123e-05 -3.869778260284787e-05)
(1.000070004760085 3.154058156977503e-05 -3.462002890064477e-05)
(1.000063324195076 2.768201444409909e-05 -3.026739190331597e-05)