/*--------------------------------*- C++ -*----------------------------------*\
  =========                 |
  \\      /  F ield         | OpenFOAM: The Open Source CFD Toolbox
   \\    /   O peration     | Website:  https://openfoam.org
    \\  /    A nd           | Version:  7
     \\/     M anipulation  |
\*---------------------------------------------------------------------------*/
FoamFile
{
    version     2.0;
    format      ascii;
    class       volVectorField;
    location    "0";
    object      grad(Phi);
}
// * * * * * * * * * * * * * * * * * * * * * * * * * * * * * * * * * * * * * //

dimensions      [0 1 -1 0 0 0 0];

internalField   nonuniform List<vector> 
12679
(
(-1.047513001929649 0.02792689054765993 0.00363389892651028)
(-1.101740569946429 0.004150684081388408 0.0002647965460650923)
(-1.138804948164483 0.004687330356688228 -4.167087003177474e-06)
(-1.133247892099684 0.08524271603622617 0.0002244052031497049)
(-1.128360943680598 0.1007417041177195 0.0003672646404758376)
(-1.182958548960901 0.02632416142946632 -0.005781938306950412)
(-1.172356698445665 0.003112957664744846 -0.0001014931743916448)
(-1.180107957730353 0.0237746486667483 -0.0005192355567691667)
(-1.176311997075646 0.01032158374098741 -0.002419892931514993)
(-1.188455822573151 0.03640799410724125 -0.007561842405245109)
(-1.211314326686893 0.07645772020452268 -0.001196087779218339)
(-1.203867039411938 0.06500736017892129 -0.0111955441833088)
(-1.185518418848905 0.03274770951606729 -0.0006815080834602691)
(-1.183377768126652 0.2741594903579451 0.004142005833159085)
(-1.221983452236608 0.1020481790567219 -0.001324682956453026)
(-1.221522692946337 0.1161664747743506 -0.01351471004612856)
(-1.209739540418851 0.2492530696156937 -0.0005233265372368325)
(-1.183006804853096 0.004277371059675521 -0.001896565921118794)
(-1.18204645562234 0.004929572357130744 -0.0001626787270610788)
(-1.220141442200991 0.02582993317109879 -0.008929714777434664)
(-1.249207388493015 0.04244819344019315 -0.001019842159526876)
(-1.252163781317422 0.03919327454381717 -0.01266995572678145)
(-1.219109591184615 0.02601447991410636 -0.0006944479744275228)
(-1.327422349785614 0.09181618815823377 -0.02148380971438448)
(-1.263044483148536 0.05107484566373081 -0.001107907456889524)
(-1.264676275721492 0.05193584378565441 -0.01489214956619602)
(-1.322439559224747 0.09715070912382562 -0.001675866775433236)
(-1.184497477305404 0.00653483324801159 -0.002574774873436376)
(-1.191873853286518 0.01179712843379814 -0.0003669430835102689)
(-1.193145896402949 0.01066670146844855 -0.00440000586610168)
(-1.183752206359566 0.006500137550843635 -0.0002035961156025554)
(-1.213691683312916 0.02033286955803701 -0.007676184270378402)
(-1.195740943376879 0.01397759718756386 -0.0004154466180836651)
(-1.196544811748074 0.01381062968468524 -0.00525037092642431)
(-1.21184414149953 0.02222768139557437 -0.0006306856265740351)
(-1.352502821903287 0.1364887704696983 -0.02602986202317892)
(-1.392955141661328 0.3582003731671108 -0.02053691734359015)
(-1.349816883159068 0.1268847036924388 -0.001765106574989127)
(-1.355900237703998 0.1471936659723616 -0.02712508427129218)
(-1.371165626799011 0.186183809952053 -0.05736682542888568)
(-1.18153483258848 8.800667352640965e-05 -0.0003286213017273431)
(-1.181490643869883 0.0006703527743491106 -4.127809679118184e-05)
(-1.241657704422163 0.002045855372686646 -0.003773617726572931)
(-1.260944679499083 0.01293086370370774 -0.00060885850263598)
(-1.254631067443638 0.002441174961712025 -0.004332086182965325)
(-1.240829030311539 0.009909583983951559 -0.0004905066821986278)
(-1.290191154727704 0.003218760321731092 -0.008446131540794594)
(-1.269059626054633 0.01427910407917428 -0.0006454483010950807)
(-1.270368046745715 0.002957074049323784 -0.004992131831466215)
(-1.299255161602774 0.01952409633700467 -0.0008230865895912749)
(-1.18999567204555 0.0005489182262984091 -0.001211104180531552)
(-1.194876110000135 0.003474125088699358 -0.000205101221754858)
(-1.193310088601498 0.0006579793996987682 -0.001438310042234332)
(-1.189705781462126 0.002661526659769265 -0.0001583249606179918)
(-1.202126912903243 0.0008014552370396652 -0.002780372045482883)
(-1.196929959929609 0.003788246069789508 -0.0002193537019999346)
(-1.197274990961847 0.0007805004562317714 -0.00167833300964805)
(-1.20423214178442 0.004808732049429802 -0.0002740100858698497)
(-1.755792561940062 0.3657335806140288 -0.1953181354804521)
(-1.601307067886926 0.1043530232829353 -0.03056088383013299)
(-1.528658051655003 0.08993137342300746 -0.001818844359875708)
(-1.764677005281167 0.1163107475699373 -0.1474000867268305)
(-1.880352096214445 0.1534066717595279 -0.188232744941649)
(-1.18217530269721 0.0001819334995718239 -0.0004017776399498339)
(-1.183928995607048 0.001495456531092758 -9.233880103806168e-05)
(-1.183396516561848 0.0002666468596765127 -0.0005993772757276681)
(-1.181932209387578 0.0008810199457068807 -5.272352516209037e-05)
(-1.236016406778197 0.001841954532951433 -0.003528598126577844)
(-1.22117443507609 0.007135373021618941 -0.0003780475624656544)
(-1.226491883985601 0.001383257411143205 -0.00434129110734229)
(-1.235259829051975 0.009081003964112372 -0.0004640068367320644)
(-1.314233599649796 0.004587887798515999 -0.00685848975091152)
(-1.361423037921295 0.03283074945401701 -0.00116704189953468)
(-1.345943110525281 0.005963126519070197 -0.008234019119936068)
(-1.31187639266413 0.02202591449226589 -0.0008773849253109074)
(-1.188565108705694 0.0004853269840121906 -0.001098752330338567)
(-1.184828130447838 0.001718905556286832 -0.0001039959573611845)
(-1.185084133032791 0.0003552266160948532 -0.0007950383986014233)
(-1.188283418922386 0.002403978188812628 -0.0001457076870964966)
(-1.207527343878664 0.00107420886982808 -0.002226413119218174)
(-1.217211529324819 0.006576392895262471 -0.0003575208904749237)
(-1.217750128631692 0.001333222654377199 -0.002713086106605366)
(-1.207094236357893 0.005214710535550587 -0.0002907538799690663)
(-1.492795477235185 0.01438571687985274 -0.01403186368199217)
(-1.383521870104252 0.03859328977615072 -0.001244545459056985)
(-1.388739203379122 0.008140182936341956 -0.01001495239185702)
(-1.479959755138015 0.06925994235760531 -0.001733535246986877)
(-1.696559357253259 0.08178652770474251 -0.11963155712779)
(-1.653928510142958 0.06954801754576047 -0.08440854364865163)
(-1.126373754733451 0.04599309100455642 0.001552965993940367)
(-1.070786900542257 0.01991071167127433 0.001955676781154139)
(-1.069326546802335 0.02771871688287545 0.002266317479625659)
(-1.172762524849749 0.03158447513135215 -0.003943554329275033)
(-1.165221356481479 0.00373108720641307 -5.432727403431548e-05)
(-1.138905454953333 0.03436565537603267 -4.683097138247704e-06)
(-1.138902767164766 0.004933222778459923 -4.671735795095925e-06)
(-1.138818003764363 0.02522773535240105 7.952482823728394e-05)
(-1.170720857268014 0.02865813069353032 -0.0003672328733410243)
(-1.158975538724911 0.01400594739001047 -0.001040498466394725)
(-1.081559889735489 0.129343535697472 0.0117146729515071)
(-1.058485318271438 0.04875463059305808 0.00458303027781633)
(-1.176258844580188 0.04314411149164719 -0.004976000209034659)
(-1.138629617525106 0.04549635990059191 1.647250927172378e-05)
(-1.149397397199468 0.07662142496186332 0.0001118446298171427)
(-1.188248538055392 0.08569095785836257 -0.0006680176545435609)
(-1.137968507151147 0.04768236379766346 0.0005927391542471891)
(-1.184598328492236 0.07382202718973972 -0.006469911822392997)
(-1.174344174249231 0.03908179773486219 -0.0004674517907350014)
(-1.145419095770946 0.2289507710453965 0.009955313342675576)
(-1.096595064069504 0.1474159252389332 0.001073738500150132)
(-1.125073383567506 0.1037121231130034 0.004877176677968143)
(-1.191424384086492 0.1098725640900136 -0.0006337858140997909)
(-1.091273188898441 0.1471524000598919 0.01240969108121153)
(-1.163004231536847 0.1186607593566418 -0.0003120698668543343)
(-1.160739137206273 0.2184136398995295 0.000460266558524176)
(-1.179599595388043 0.006681595807668935 -0.001326190186468276)
(-1.173656079369645 0.009347725614543121 -0.0002184235977650521)
(-1.172603152531057 0.003063962603991854 -0.0003382991707237983)
(-1.173854231572726 0.009373324032453376 -0.0009806257948153001)
(-1.180267846336156 0.006678016445631031 -0.000175694107637287)
(-1.178033040930518 0.002174343354237739 -0.0003658502382619928)
(-1.182768606333232 0.01157019457552809 -0.002243662941961235)
(-1.180288527288936 0.02382763688613734 -0.002339951674034835)
(-1.176190132768363 0.01613789201130445 -0.0003652117111563329)
(-1.189442558662765 0.01600263939660399 -0.0003985565115618612)
(-1.176387598246312 0.01616819881975999 -0.001646267218759175)
(-1.187742718955239 0.01715084194346729 -0.003236300620745948)
(-1.181868131066707 0.008953199349661975 -0.0002276187201191789)
(-1.21697894821171 0.04358317957127634 -0.007052816888972434)
(-1.240321204885256 0.05603587419007354 -0.001059158848874079)
(-1.210836469345325 0.07700983308427653 -0.005324209955601634)
(-1.201196623347862 0.05780573697934117 -0.001027945687586518)
(-1.20106968934344 0.05812852948341601 -0.004601148442487847)
(-1.233369990461447 0.05946751991730697 -0.008740468543135094)
(-1.214285386487894 0.03523470584516871 -0.0007567498575697819)
(-1.204357147187821 0.03231026882291849 -0.005597286894695951)
(-1.185656598442444 0.03284805770839826 -0.003067470913473742)
(-1.193035495982946 0.01913074635427637 -0.0004597892671522694)
(-1.192532226487075 0.04375108493979909 -0.0008522594451995879)
(-1.194801732688769 0.02384811606468561 -0.004340379509726641)
(-1.192582135410961 0.04393447623245244 -0.003827851858155344)
(-1.207747566567885 0.02994148336111779 -0.0006796882760120638)
(-1.297280166835001 0.2000102895813455 -0.02133298286481349)
(-1.256450129904469 0.3357902158014365 -0.01236951394272719)
(-1.215906227523962 0.2121585364211125 -0.007322118392692919)
(-1.195689591832617 0.2629887223560756 -1.953087855036026e-05)
(-1.292902959387358 0.2240191488400904 -0.02785280597029204)
(-1.277136932685873 0.3094432316307039 -0.01429960620470319)
(-1.222509226808916 0.1989211222939887 -0.007008353887059338)
(-1.278220554671689 0.1212458197009875 -0.01236644925473986)
(-1.251756736460748 0.06739586835559909 -0.001141378197712016)
(-1.220822431662546 0.1029724884841901 -0.005840831735617504)
(-1.230524058926324 0.1378905492640075 -0.001344536931453744)
(-1.254083667853919 0.08325546264293503 -0.01061796805910389)
(-1.228109841802361 0.139432594216056 -0.005812308220971774)
(-1.295072888425262 0.1202750261257354 -0.001463984292354316)
(-1.298608388549691 0.1852575982066818 -0.01289483825282847)
(-1.203143491851653 0.2545865412311701 -0.001236137373088772)
(-1.315104012522443 0.3223519559781401 -0.001146997843284917)
(-1.230429087768117 0.1874364153106509 -0.00113361907725436)
(-1.288805483410078 0.2897609382184023 -0.009468256617530927)
(-1.22603282027579 0.1901597834382946 -0.004602079798467776)
(-1.311265107833049 0.1528466815566205 -0.00139494337932714)
(-1.181105824344573 0.001207525581046287 -0.0002373235716913135)
(-1.179896749112671 0.002195851611769177 -9.360669710492901e-05)
(-1.180036302783736 0.002011335147700417 -0.000330108871244264)
(-1.18050754095298 0.001166981396080667 -0.0002681655338513888)
(-1.182002308354174 0.002103997526086344 -0.0005579871054685646)
(-1.182148733379583 0.004800593344291877 -0.0007272469513013537)
(-1.180788474140425 0.003497236662619682 -0.0001100262696970238)
(-1.183641787634415 0.002583492564783406 -0.0001019965943716759)
(-1.180887229430983 0.003405820901404605 -0.0004402596071805839)
(-1.183315879959937 0.002974694580654885 -0.0008082141171526838)
(-1.181661864526172 0.001542536890093447 -5.744171970191361e-05)
(-1.24264269333063 0.02205953038254154 -0.004754762356404105)
(-1.25928314100264 0.0222656972637919 -0.0006844764990403285)
(-1.249340962125942 0.04159694030715697 -0.004504744802942818)
(-1.237528407458759 0.03586640319917098 -0.0008782919868365462)
(-1.255655186799191 0.02626025957958575 -0.005507284455806272)
(-1.237690519762309 0.03511040759693813 -0.003624925490952133)
(-1.239680582660266 0.01720787728641347 -0.0005527970875609673)
(-1.231739956236914 0.01859582880407422 -0.004216941431025819)
(-1.219262502013569 0.02541592580472148 -0.002879584213535992)
(-1.220407193984007 0.01240929516745102 -0.0004245692764574347)
(-1.227584737138915 0.0303734390085317 -0.0008033535652497033)
(-1.222552023222363 0.01587056251015254 -0.003666379724385897)
(-1.227729102234491 0.029695971807999 -0.003528610661622139)
(-1.234225007651961 0.01568097602649597 -0.000519781366285462)
(-1.290614176401308 0.03904440697059809 -0.007372646431043275)
(-1.267166830439055 0.0247319023240311 -0.0007302968317773018)
(-1.263192147915344 0.05015299758277916 -0.004538596213030219)
(-1.27946280532868 0.06195063249485998 -0.001300867328304729)
(-1.271387777992314 0.03185436462653764 -0.006257444021554608)
(-1.279525043518223 0.06093125969368898 -0.00581286846466833)
(-1.296234651618477 0.03344269464780412 -0.0009284348336804477)
(-1.314578742900212 0.04925618448155591 -0.008514571198058022)
(-1.322197748456228 0.0960802895879046 -0.007669288343126597)
(-1.354728935766231 0.05558852733041704 -0.001319491030863911)
(-1.299102676510823 0.07693716649831638 -0.001400421255238375)
(-1.344941358158711 0.06356307448146453 -0.01031562569147643)
(-1.299141199421542 0.07591102266442418 -0.005674363745307056)
(-1.308297492162739 0.03795548159633333 -0.0009967041721094011)
(-1.190193229856648 0.00598184994968264 -0.001554410217708144)
(-1.194473955316895 0.006016174912381328 -0.0002277810711580426)
(-1.191990712953724 0.01149772063971194 -0.00161069638101977)
(-1.188625323171519 0.009905765302366981 -0.0003039581551173837)
(-1.188740354819686 0.009649334278994521 -0.001259990804194991)
(-1.193599588304473 0.00713201696968697 -0.001854848759206215)
(-1.189360452237842 0.004641147636941563 -0.000176752032823149)
(-1.187375221837626 0.004892934581522414 -0.001304659706176242)
(-1.183859225980697 0.006327593397254703 -0.0008368788653549791)
(-1.184532217474667 0.003000313321875256 -0.0001161090209930521)
(-1.185931515898416 0.008104321803511874 -0.0002601278612674118)
(-1.18509725725751 0.003921291513531382 -0.001036739807816023)
(-1.186040325235117 0.007893965943656525 -0.00114776956469233)
(-1.187951918085226 0.004161383303366179 -0.0001614219529207363)
(-1.202466267843267 0.009898254264088798 -0.002489444367801495)
(-1.196505488647494 0.006600494145733964 -0.0002451629958351502)
(-1.195866633355332 0.01362559701632836 -0.001727082951401214)
(-1.200290909559756 0.01633268527734098 -0.0004882825317617106)
(-1.197664394506879 0.008457439383114758 -0.002138333429889618)
(-1.200417833812297 0.01592924110100039 -0.002139174852650207)
(-1.203715939550382 0.008324688686497652 -0.0003050652383332721)
(-1.208118950692846 0.01160754062949294 -0.002824315546549339)
(-1.211981742555216 0.02169992126297674 -0.002763586632299238)
(-1.216506467404369 0.01137458471522362 -0.0003991767241755055)
(-1.205624626226353 0.01912254009569133 -0.0005433146386231951)
(-1.214751356827163 0.01352378741471845 -0.003253080081368172)
(-1.205763481047326 0.01865810288635527 -0.002258316071233494)
(-1.206541537827317 0.009078375750399392 -0.0003256197753293393)
(-1.360003531739305 0.4343549685515403 -0.04868618469589248)
(-1.509928060487568 0.4750488850789634 -0.107027879061777)
(-1.518248388890797 0.0387927341915896 -0.1148038719750317)
(-1.665541053326634 0.08265853369015963 -0.1712883680487706)
(-1.585127128897659 0.05540368740635062 -0.04022294777686025)
(-1.611653266233066 0.05791156321367321 -0.0639468644627101)
(-1.501054265168571 0.1901522871217715 -0.01695344503899443)
(-1.406218579628547 0.2389421498274849 -0.00215038831355633)
(-1.402825940182045 0.2386347274985038 -0.008590200350990673)
(-1.486002278237222 0.2163681792534893 -0.007857293979158747)
(-1.435982433636394 0.1223623567873634 -0.01492717093688716)
(-1.349281456757002 0.1259896741588505 -0.007062859644491097)
(-1.375012606685624 0.06564257319919123 -0.00141632278259327)
(-1.379760955056099 0.1705552568030991 -0.002151767951016711)
(-1.384376155417466 0.08601967766799992 -0.01213408465012344)
(-1.378122798561784 0.1697448592640213 -0.01034033878291774)
(-1.458233025212563 0.1129516224408028 -0.001902633550097185)
(-1.530814869095336 0.309415286138278 -0.08517426326446949)
(-1.381964225738849 0.3761882432962693 -0.04907396167444403)
(-1.519076260978009 0.3704116829627413 -0.09561049535941683)
(-1.394527729724633 0.348800316780231 -0.04609460268213077)
(-1.525241148270402 0.260934536788951 -0.07317532037320029)
(-1.40238010263784 0.2904116094133133 -0.03251243654920631)
(-1.401128272092355 0.308298977587122 -0.0448055675340073)
(-1.516307094898889 0.2294750676258613 -0.05755835173259425)
(-1.181010716144978 0.0002001329533501562 -1.069414949871252e-05)
(-1.181045742779759 0.0001948482497000787 -7.651728789454783e-05)
(-1.181531766503708 0.0006577967689196016 -0.0001805665100773255)
(-1.181166321029223 0.0004636407347008807 -2.796871162370841e-05)
(-1.18120786634176 0.0004519123185053471 -0.0001129100878702612)
(-1.261088653303546 0.01267817786510013 -0.002570178186773243)
(-1.25360155222705 0.01181775075198649 -0.000562025343721894)
(-1.253737783833245 0.01158508211590127 -0.002320185778873932)
(-1.240941361892689 0.009713626733100136 -0.002030487177143848)
(-1.24692051199216 0.01078137654539065 -0.0005295869298580684)
(-1.247042981351571 0.0105693906278439 -0.002236971604838182)
(-1.269223329040624 0.01400846171640932 -0.002651657738668124)
(-1.278050491877361 0.01574067370278112 -0.0007034290150512022)
(-1.278232058258977 0.01544373635519849 -0.002964400961197279)
(-1.299478387831354 0.01916189755144377 -0.00346782777465985)
(-1.288062107885897 0.01753109049277572 -0.0007501877037338508)
(-1.288270375586814 0.01720347034290274 -0.003068499834189341)
(-1.194928517369218 0.003400748455476236 -0.0008730727553839604)
(-1.192995108075104 0.003194606051499686 -0.0001880864884024104)
(-1.193046833799514 0.003126195527256971 -0.0007868639270464488)
(-1.189753487722139 0.002605243508006398 -0.0006620928387139724)
(-1.191274205964639 0.002914566805502469 -0.0001742160159220359)
(-1.191323937927994 0.002853825459419594 -0.0007422733675248495)
(-1.196984925516913 0.003708885282276559 -0.0009170280330727824)
(-1.199166210110713 0.004101187288369198 -0.0002378182449640827)
(-1.199224033204723 0.004016165791924863 -0.001010957311450603)
(-1.2042943274681 0.00470818307627493 -0.001163994614238861)
(-1.201596094231773 0.004452799926991641 -0.0002538231502242062)
(-1.201656970359007 0.00435868745891123 -0.001060796009802308)
(-1.782492866503272 0.46838018843665 -0.2106123690136956)
(-1.745367438216783 0.5760700912987757 -0.2442102724298581)
(-1.529929578876712 0.08933722629238314 -0.006725147898009148)
(-1.590583089579745 0.1214966232528445 -0.002284061457361971)
(-1.592540308468817 0.1211515201812721 -0.00995763367855217)
(-1.183971319062092 0.001463378357442913 -0.0003959784075754596)
(-1.183150089199354 0.001290659239252431 -7.854746011004537e-05)
(-1.183192925296697 0.001262173142166894 -0.0003277512412873567)
(-1.181974085341206 0.0008647990514456705 -0.0002206704796663147)
(-1.182485335439206 0.00107956072793669 -6.653094654214904e-05)
(-1.182528095915753 0.001057840766635641 -0.0002872629131990446)
(-1.221258012506126 0.006990396498532168 -0.001572756395049024)
(-1.225479698609695 0.007710808154144217 -0.000406708501619159)
(-1.225569511175409 0.0075552187725904 -0.00172182841486484)
(-1.235361517886092 0.008897713838086695 -0.001963091528879839)
(-1.230162335267589 0.008379855528747393 -0.000430957911594752)
(-1.230259927334068 0.008209359120800152 -0.001789826168623215)
(-1.361793780372828 0.03227725388829875 -0.004921214264624834)
(-1.34254787814278 0.02851542331876654 -0.001043014617072166)
(-1.342896916399934 0.02802977650330621 -0.004202406031723378)
(-1.312139306971347 0.02163669922932706 -0.003561868295075718)
(-1.326181290695825 0.0248674345941387 -0.000972270076193709)
(-1.326475577518797 0.02442971095653453 -0.004092088260356444)
(-1.184871313494974 0.001682186713886945 -0.0004341946651500512)
(-1.185851102288878 0.001935431799000569 -0.0001182449622031151)
(-1.185895668893685 0.001895088902472958 -0.0005054459127103865)
(-1.188329464200135 0.002352846350527311 -0.0006218780429756008)
(-1.187001330888535 0.002171458921849593 -0.0001307552216810005)
(-1.187047158585185 0.002124298508345577 -0.0005467197541405111)
(-1.217288834155259 0.006440830000931508 -0.001515749930378431)
(-1.213563626434816 0.006094224181597043 -0.0003324164010047707)
(-1.213638631769222 0.005967452224717363 -0.001385977171359511)
(-1.20716036238322 0.005106822321275069 -0.001213427953166341)
(-1.210198228315998 0.005625364290624111 -0.0003131747335473974)
(-1.210268476038702 0.005509945125201621 -0.00132860706967816)
(-1.383976711646287 0.03800511126118925 -0.004945483520448168)
(-1.409682971891837 0.04573417920120833 -0.001410627817299429)
(-1.410180975028582 0.04505049343426174 -0.005966435089851975)
(-1.48069284181864 0.06845682963448152 -0.007407121373011223)
(-1.441251268439857 0.05576697144300222 -0.00149885710398752)
(-1.441902771834587 0.05505120235034108 -0.005834683480185049)
(-1.183693258595635 0.004452667045303117 -0.002324285834632772)
(-1.186813179045979 0.004704209371987839 -0.004335991098233619)
(-1.18519781418968 0.006607081786996746 -0.002907452547565374)
(-1.193742130951478 0.01102116293049517 -0.008650095522687407)
(-1.193988132277555 0.01103151341617342 -0.00527104494664349)
(-1.188437471618856 0.007300299094512379 -0.005791387549814917)
(-1.221397304052104 0.02657196205442773 -0.01006152967917754)
(-1.248355949814079 0.04255065459334561 -0.02645239606039715)
(-1.227536802408041 0.0299185429072423 -0.02042713099791444)
(-1.254132657283823 0.04108996185873868 -0.0150396453390873)
(-1.214882266964979 0.02109514159605002 -0.00913459550882881)
(-1.20154723061063 0.01559045979682746 -0.01189426337387363)
(-1.212477455074815 0.02156365579500278 -0.01572312976769705)
(-1.19741935126604 0.01408174319867137 -0.005968314045042526)
(-1.331130493032597 0.09854831876443672 -0.02580037760260664)
(-1.277583674520028 0.06353922632707838 -0.03449354593925889)
(-1.26677341669333 0.05429550458316238 -0.01635555125015117)
(-1.34648268474806 0.1207571843462234 -0.04991253919897906)
(-1.182320795411324 0.002076006127864051 -0.0009033429098314956)
(-1.18416069184574 0.002853814485080334 -0.00188954747830454)
(-1.182514149584086 0.004315387304656504 -0.001184464629253173)
(-1.181560894342337 0.003659265611167424 -0.00141187661818639)
(-1.181065087197653 0.003567544963114153 -0.0006728603568952424)
(-1.183639081501264 0.002837756737842228 -0.001303613545934332)
(-1.182830491495857 0.002105687706019574 -0.001329691548197371)
(-1.18193118619244 0.0002623133833135097 -0.0005752796657930739)
(-1.182449595973575 0.0002502316440789065 -0.0008128959728185848)
(-1.182816807635837 0.0004543331312668425 -0.0009656186200504464)
(-1.184699430114868 0.0006019342672995338 -0.001939644907347626)
(-1.184158615841033 0.0006355994376916916 -0.001371780707893372)
(-1.183343038933161 0.0004328274170739279 -0.001368551686947526)
(-1.181449306103925 0.001156625940928987 -0.0005410762379979022)
(-1.180827316915609 0.001602102507074169 -0.0007650061648575349)
(-1.180348634979295 0.001643318838739342 -0.0005262929400210053)
(-1.181949947598721 0.001175132206480621 -0.0007911028455000146)
(-1.232456306596684 0.01796390815484845 -0.006785510214877367)
(-1.224249625308431 0.0157514243451648 -0.008687346534834229)
(-1.229891626263652 0.02790041377742762 -0.009864767242129336)
(-1.219165005695293 0.02547845123060367 -0.004526510393746261)
(-1.233667298341473 0.01818696194995288 -0.009908695254292535)
(-1.223192158821296 0.01554174305120628 -0.005919839570539277)
(-1.228853076252977 0.02778075341804894 -0.005709619019557247)
(-1.245785574027963 0.004810601647997311 -0.008308047679764926)
(-1.261438317397966 0.005480047676631922 -0.01359028384679171)
(-1.259604845994509 0.005722977846463865 -0.009571217490938358)
(-1.247311214484948 0.004603224020799451 -0.01180903685069914)
(-1.234305942550118 0.004025083655685485 -0.007273630640252455)
(-1.225811481277197 0.003282927610020663 -0.009031531145006931)
(-1.235599957240118 0.003838790914881376 -0.01031879993626165)
(-1.224691302906173 0.003441998549362239 -0.006361024549058794)
(-1.243492383951727 0.02165265887135459 -0.007665702692680948)
(-1.238787876025079 0.03592885616192055 -0.01149126976981921)
(-1.258316839430082 0.02582194187932501 -0.01293688710338035)
(-1.250794270539673 0.03893356527329576 -0.007307199112052411)
(-1.256632982425811 0.02541670551947734 -0.008840752501048151)
(-1.244912521779327 0.02200776149102477 -0.01127922648716492)
(-1.237512231140214 0.0353901330640729 -0.005673569694463219)
(-1.316481933953576 0.04879425024569439 -0.01363864031545087)
(-1.351579705235827 0.0639561141618375 -0.02414825706243335)
(-1.301341639539865 0.08010138102282681 -0.01961045982560116)
(-1.324733788557373 0.09033914268653422 -0.01272794547405133)
(-1.319792549301247 0.05019568288795073 -0.02022525123607118)
(-1.347251292836884 0.0619877183778865 -0.01640642941065241)
(-1.298747595732721 0.07838652435969881 -0.008766448720547181)
(-1.297465451218249 0.008612682328245812 -0.01297990082488424)
(-1.278762278037905 0.006744347356372519 -0.01573902094201812)
(-1.276495695608371 0.007011452211055321 -0.01106203152144896)
(-1.300347698939692 0.008302360829826912 -0.01844012978025013)
(-1.324184393474512 0.01103292541615141 -0.01537644298582644)
(-1.364602311616038 0.01404373001764046 -0.02659363119061715)
(-1.328011701265923 0.01071010841130991 -0.02189909262025592)
(-1.35925500716262 0.01438308160062377 -0.01868376293382068)
(-1.292064431585578 0.03790244270950693 -0.0117888423862881)
(-1.283345945275511 0.05767368354625466 -0.01641331765032279)
(-1.274664756729504 0.03204320935114974 -0.01485747437655105)
(-1.262910848769536 0.0510308513821349 -0.007061696507732323)
(-1.272603564506577 0.0313831090550941 -0.01006349660099118)
(-1.294624424804505 0.03872326618835475 -0.01728964364898681)
(-1.281442658809452 0.05708810458648867 -0.009493679510695113)
(-1.187724232621966 0.004694258965398997 -0.002106408944726742)
(-1.18597337493647 0.003879817934875476 -0.002455896449214499)
(-1.187022658547381 0.007236098650515558 -0.003088429552939122)
(-1.183982500091557 0.006427778584061788 -0.001312850243167972)
(-1.185433069346825 0.003841875702666791 -0.001679121449270466)
(-1.18828963395717 0.004723934232954968 -0.003057042816112437)
(-1.186496385010696 0.007260949437247593 -0.001863647097468038)
(-1.191211065344154 0.001288998920840451 -0.002674245525951151)
(-1.195379380910173 0.001450897972483899 -0.004479877094186189)
(-1.191834595761081 0.001224124729226708 -0.003788226146366293)
(-1.194711792657793 0.00152984565515028 -0.003165892937914667)
(-1.188318876779631 0.001047803572905496 -0.002222004655683295)
(-1.186543964932773 0.0008022086701705603 -0.002526732739019596)
(-1.185982833029 0.0008449559930360124 -0.001783873556028724)
(-1.188907065497289 0.0009927137415961847 -0.003142234413564921)
(-1.19056420272082 0.005850170032496655 -0.002515751371255636)
(-1.189383482947341 0.009829875559828208 -0.00383259028659918)
(-1.19463164413565 0.006910884209314056 -0.004350890693204653)
(-1.19255708311515 0.01067506781671602 -0.002609857397864345)
(-1.191163289317257 0.005907519111903718 -0.003677739225272646)
(-1.188813700697632 0.00969356989578578 -0.001986982822808752)
(-1.19399183071404 0.006860393654084987 -0.002993709653537519)
(-1.208629422348154 0.01135221948193205 -0.004564745553688251)
(-1.216241720822501 0.01317802728352216 -0.007641335123326132)
(-1.206514470087577 0.01890320731006137 -0.006910122901506399)
(-1.212866018302033 0.02028114058859273 -0.004469705920686145)
(-1.215310483508852 0.01304594232898657 -0.005242347835714318)
(-1.209464741236308 0.01148424341727976 -0.006685778052722888)
(-1.205730644455202 0.01865802557905758 -0.003559882041692506)
(-1.203847727574075 0.002127485712572745 -0.00425946778996911)
(-1.199618335598096 0.001733982067004539 -0.005220982909809517)
(-1.19889520780598 0.001824316529284342 -0.003683666692330462)
(-1.204638996048845 0.002020250063793981 -0.006031808016631244)
(-1.209691393291377 0.002508938385381099 -0.004878466476612497)
(-1.217553867460994 0.002772824474006588 -0.007914638018413014)
(-1.216570366272164 0.002914902746957415 -0.005584279099986688)
(-1.210568545501663 0.002387969617251617 -0.006919766762551573)
(-1.202924782085471 0.009536259543810524 -0.004015571163632686)
(-1.20180669210041 0.0148703242452759 -0.005898929223807293)
(-1.198783127284653 0.008354007629462562 -0.0050590940844858)
(-1.195889131023834 0.01363109849530567 -0.002725864462383796)
(-1.198090699004773 0.008267584533512224 -0.003458560673681144)
(-1.203679562348364 0.009617753347339844 -0.005844104499518069)
(-1.20112259863245 0.01485567873741604 -0.003461765179201817)
(-1.438865337434773 0.1200921587911383 -0.02386667346429081)
(-1.393164257403919 0.08947337214741213 -0.0290419553542489)
(-1.383378941822351 0.166197551585079 -0.02701709506935393)
(-1.348825042885745 0.1327160984059345 -0.0108847726515946)
(-1.387355797765341 0.08578463464547495 -0.0193916132495199)
(-1.446151473636761 0.1265662560678334 -0.0356142035679165)
(-1.380800706717203 0.1615845233156833 -0.01778182742162333)
(-1.478226995040064 0.02988406629984601 -0.02980569723562718)
(-1.4157007959393 0.01989458192707121 -0.03324098725979847)
(-1.407581672340244 0.02008527351417291 -0.02315515178221814)
(-1.491669503603295 0.03034884027113944 -0.04379179270664098)
(-1.467252496792473 0.1530920802930881 -0.06108060465220368)
(-1.400801287887544 0.09599454376614164 -0.03912108082921414)
(-1.361312206922018 0.1542759954160413 -0.04155961256608189)
(-1.386513952160565 0.1814011812044835 -0.03388373053966637)
(-1.389123188625402 0.1916786115791554 -0.04276669525347006)
(-1.410598881994031 0.1039945390744118 -0.04973649839575949)