/*--------------------------------*- C++ -*----------------------------------*\
  =========                 |
  \\      /  F ield         | OpenFOAM: The Open Source CFD Toolbox
   \\    /   O peration     | Website:  https://openfoam.org
    \\  /    A nd           | Version:  7
     \\/     M anipulation  |
\*---------------------------------------------------------------------------*/
FoamFile
{
    version     2.0;
    format      ascii;
    class       volScalarField;
    location    "0";
    object      mag(grad(Phi));
}
// * * * * * * * * * * * * * * * * * * * * * * * * * * * * * * * * * * * * * //

dimensions      [0 1 -1 0 0 0 0];

internalField   nonuniform List<scalar> 
12679
(
1.04789150471255
1.10174842035804
1.138814594676038
1.136449363563245
1.132849259635027
1.183265532687076
1.172360835748409
1.180347531629263
1.176359768708883
1.189037411397766
1.213725509183098
1.205672901607006
1.185970825257444
1.214727757344034
1.226237800417939
1.22710838422366
1.235150647587703
1.183016057876734
1.182056745844855
1.220447485240534
1.249928793439812
1.252841081618387
1.219387317771309
1.330767395602294
1.264077226173488
1.265829842578067
1.326004319983632
1.184518301780979
1.191932292135154
1.193201688179762
1.183770070284217
1.213886259718082
1.195822708216757
1.196636029212051
1.212048138842396
1.359621499328997
1.438420418025191
1.355768587072883
1.364136063633268
1.384937016569048
1.181534881565932
1.181490834762926
1.241665124204537
1.261011127112622
1.254640921419612
1.240868696887554
1.290222815367028
1.269140119883828
1.270381297036319
1.299402109726146
1.189996414940691
1.194881178134754
1.193311136808328
1.189708769083998
1.202130395392068
1.196935974854723
1.197276421702752
1.204241774018881
1.804083630711272
1.604994656300572
1.531302190624118
1.774637965483513
1.895966555334418
1.182175384971414
1.183929943685776
1.183396698391702
1.18193253892247
1.236022815981213
1.221195339555275
1.226500347204229
1.235293295215697
1.314259503311495
1.361819337606628
1.345981506083653
1.31206157642962
1.188565715655446
1.184829381874027
1.185084452956027
1.188285859558943
1.207529874187274
1.217229347282576
1.217753880758082
1.207105535233864
1.492930734797285
1.384060604152113
1.388799170813306
1.481580514716634
1.702737325091104
1.657540722169183
1.127313448636121
1.070973784685611
1.069688144814533
1.173194387295656
1.165227331280782
1.139423816502804
1.138913451393199
1.139097401740983
1.171071624178976
1.159060631961093
1.089329508860256
1.059617472094048
1.17706034016426
1.139538206880716
1.151948450218724
1.191334535173495
1.138967199889816
1.186913961213698
1.174994402122186
1.168119201444255
1.106459824155408
1.129854021431526
1.196480022825308
1.101219779192461
1.169042050471799
1.181109679319338
1.179619263975705
1.173693324648462
1.172607204326726
1.173892063952884
1.180286751542631
1.178035104374833
1.182827324487124
1.180531337704891
1.176300894057223
1.189550269502376
1.176499852170223
1.187870948989098
1.181902064817549
1.217779535120414
1.241586820283513
1.213294612655958
1.202587164342929
1.202484301422036
1.23483371961019
1.214796714271321
1.204803478196497
1.186115497623704
1.193188958856692
1.193334820991071
1.195047594018836
1.193397268453819
1.208118843058357
1.312781414920158
1.300605629251278
1.234298510136692
1.224269851170398
1.312462730990883
1.314168306256829
1.238607096520862
1.284017626143557
1.253570274492203
1.225171358770047
1.238226583042218
1.256889040163662
1.236013355424809
1.300646766610253
1.31181950029663
1.229784573409767
1.354034956298992
1.244624214332422
1.321011212393168
1.24070076923051
1.32014402129098
1.181106465455667
1.179898796123279
1.180038063084599
1.180508148216345
1.18200431264433
1.182158704411357
1.180793658279434
1.18364461147404
1.18089222288815
1.183319894949489
1.181662872732776
1.242847574698429
1.259480154268496
1.250041374441034
1.238048355090653
1.25594182968439
1.238193726165632
1.239800130525167
1.231887538387518
1.219530774562964
1.220470356048659
1.22796069889495
1.222660527938874
1.228093257985049
1.234324727409807
1.291225686686533
1.267408370057176
1.264195524662662
1.280962389511049
1.271802161572183
1.280988190748829
1.296666320944992
1.315528768563223
1.325706274426467
1.355869578842172
1.30137967284189
1.346482058349365
1.301369485503758
1.308848325819966
1.190209277025072
1.194489127692329
1.192047252289383
1.188666637649675
1.188780185066056
1.193622336977062
1.189369520729396
1.187386019952956
1.183876431788407
1.184536022920699
1.185959235429074
1.185104198168177
1.18606715035748
1.187959217671386
1.202509583359589
1.196523719360147
1.195945502304427
1.200402125372987
1.197696164567753
1.200525423523263
1.203744763907277
1.20817801286936
1.212179140342331
1.21655970907973
1.205776391415067
1.214830990002103
1.205909945651897
1.206575735475072
1.428511179385389
1.586508480266959
1.523076812119474
1.676364858417466
1.586605013503177
1.613960718601346
1.513145471716811
1.426376061502228
1.423004196465349
1.501692277728151
1.441263652668393
1.355169263055102
1.376579319157029
1.390264010476357
1.387099117094682
1.388575776746977
1.462602216888454
1.56409291215773
1.433091402992403
1.566505304288847
1.438225977499138
1.549129439516983
1.43250337301066
1.435345335910428
1.534652721809327
1.181010733150566
1.181045761331426
1.181531963409466
1.181166412356315
1.181207958185638
1.261154999792191
1.253657380168678
1.253793455079734
1.240981039774005
1.246967233639008
1.247089777601605
1.269303402370523
1.278147614091957
1.278328788468228
1.299624285933447
1.288181623718844
1.288388891483337
1.194933675552033
1.192999400157218
1.193051189133291
1.189756524339184
1.191277784082103
1.191327587345213
1.196991022808935
1.199173246768782
1.199231184316917
1.204304093260163
1.201604371466096
1.201665343536597
1.854998218337841
1.854131306471217
1.532550450699011
1.595218233112834
1.597172964775157
1.183972289640575
1.183150795775168
1.183193643903682
1.1819744223083
1.182485830108126
1.182528603957302
1.221279031309511
1.225504024342109
1.225594008122805
1.235395120159427
1.230190952175479
1.230288618926028
1.362185134161478
1.342851079737519
1.343195985946851
1.31232251926062
1.32641477314
1.326706830357625
1.184872587167267
1.185852687595667
1.185897290804865
1.188331956190874
1.18700332428428
1.187049185270688
1.217306817342293
1.213578973727982
1.213654094024094
1.207171774252035
1.210211342956675
1.210281747687319
1.384507271439373
1.410425356500602
1.410913012073712
1.482292985473385
1.442330551730788
1.442965100699181
1.18370391525635
1.186830422748694
1.185219796312082
1.193824344446648
1.194050726821404
1.188474004126485
1.221727742949572
1.249360982622665
1.228071247182612
1.254895731908934
1.215099735997022
1.201707236944988
1.212771119018604
1.197517022447045
1.335022778868188
1.279627712810958
1.268041953215874
1.352807887124724
1.182322963107764
1.184165638227765
1.18252261690448
1.181567404196417
1.181070666943906
1.183643201107807
1.182833113170518
1.181931355303375
1.182449901870608
1.182817289044993
1.18470117087041
1.184159580985396
1.183343909463712
1.181449996165944
1.1808286515583
1.180349896250493
1.181950796525826
1.232605895172911
1.224381771518406
1.230247600719117
1.21943960567363
1.233841136785348
1.223305214441397
1.229180317539387
1.245822564413025
1.261523426392624
1.259654209984844
1.247375608548862
1.234333936508132
1.225849148060034
1.235649006910779
1.224712659116965
1.243704510557038
1.239362067263943
1.258648244794253
1.251421401798222
1.256921087556668
1.245158122247515
1.238031168078171
1.317456478898958
1.353307512157973
1.303952017589849
1.327871519328169
1.32090160139173
1.348776369234855
1.301140505574201
1.297558959441645
1.278876916178476
1.276562881298915
1.300504942597071
1.324319624699262
1.364933667414115
1.328235429198824
1.35945949940789
1.2926739988631
1.284746070640101
1.275154011819222
1.26396116526187
1.273030245474414
1.295318811884626
1.282748794368004
1.187735377002519
1.18598226397901
1.187048731697935
1.184000675859748
1.185440484106558
1.188302955998799
1.186520065658682
1.191214764559987
1.19538865592279
1.191841244793814
1.194716966825792
1.188321416161394
1.186546926436317
1.185984475612977
1.188911632337348
1.190581233807519
1.18943027736382
1.194659556417905
1.19260771627415
1.191183615722183
1.188854881120678
1.194015292661884
1.208691354463483
1.216337113581112
1.206682330845956
1.213043808477839
1.215391809314429
1.209537741357766
1.20588025178996
1.203857142873097
1.199630950109032
1.198902254911234
1.204655791053959
1.209703832022623
1.217582748818227
1.216586674644547
1.210590677697856
1.202969283237621
1.201913162040618
1.198822910249383
1.19596992055996
1.198124216280473
1.203732172682944
1.201219452038001
1.444065512356226
1.396336480796101
1.393588478086838
1.355382247695277
1.39014069352666
1.452116205189028
1.390336773315133
1.478829430959329
1.416230737290795
1.407915389352057
1.492620742584789
1.476481599836886
1.404631503115859
1.370656488283315
1.398740660477695
1.402937245045772
1.415301306899976
1.462916570108001
1.574895208594882
1.487534375514746
1.616259978511853
1.462365627766689
1.537993606161125
1.427510952183819
1.442538673690142
1.512609419324157
1.493208089214703
1.377055805310188
1.410866282258036
1.443874684203007
1.508741301688303
1.409403081642813
1.428557391976393
1.138889110532957
1.200368761982532
1.22773336607929
1.191363516205101
1.208030422013774
1.402420932602532
1.46240097229035
1.249286084032457
1.185470451717773
1.17837801090301
1.381463776331419
1.284635527653217
1.30852418914352
1.361459810076117
1.867212437520243
1.712497696139152
1.551892762978901
1.833010296250923
1.556298684817652
1.817769310389733
1.695143394212541
1.676578362691388
1.650529692921042
1.101088810460191
1.123608485496925
1.058792756891076
1.067448652477277
1.094540682961016
1.056126551513014
1.146421844221202
1.127695355620438
1.097823302864804
1.185401749953985
1.291627700656319
1.275506562350142
1.226559811104995
1.181011041336195
1.23789398527483
1.214023262050227
1.307184510975315
1.559937760679665
1.537175090114064
1.375939383660216
1.404830545904482
1.401798757305477
1.527532413253749
1.505419008708338
1.561627764913027
1.407849524295846
1.777946423748917
1.575425527085026
1.4972218914901
1.337496269145064
1.382014810030967
1.420089831351219
1.791758676597208
1.866161026689034
1.820330331369088
1.858086876925892
1.752040648113968
1.751873233906625
1.64719096161824
1.722985212754969
1.592025245719975
1.804021013540154
1.766543570283279
1.812331771509264
1.750465235371276
1.819985126725025
1.812458616620858
1.183863777653894
1.151019464529643
1.138454264235621
1.190937993788912
1.196814999001087
1.347956624610962
1.305184208392318
1.33459120368209
1.315122392230317
1.296256779602219
1.232901317079375
1.227089872667973
1.270777506958818
1.277116528490596
1.227598174171038
1.295227546820842
1.253045208669857
1.230901862001769
1.288889048048334
1.243844782350944
1.239986583722694
1.215193498874383
1.203606472695375
1.215042523928724
1.234645805465076
1.211754924013503
1.326690463497616
1.299528755462931
1.293073762429992
1.264274538030089
1.258287415556972
1.273745471080702
1.261804549652733
1.278487241214953
1.210638073962582
1.198738782940014
1.188319027497225
1.194194376713112
1.195477335444743
1.189970745338151
1.207225485298304
1.19611444423342
1.469105188412051
1.360131087543176
1.378315800131633
1.413848027175228
1.444927085767286
1.392474006491095
1.349141660924934
1.343211152956987
1.386476306089034
1.364957598555591
1.327538532944653
1.432187199989553
1.461979379451543
1.3936984401798
1.374573359197772
1.336707310883142
1.299178690165726
1.291741246361316
1.307704098919952
1.314907772906474
1.325495240905056
1.307983052475446
1.557239747098353
1.453468870656194
1.503458179778696
1.419099476057738
1.33299245011098
1.332074207021104
1.3675261791109
1.350483001291419
1.298737447487603
1.324202431437982
1.318737587169236
1.368618262826229
1.404372177519836
1.422905457431022
1.374567907202626
1.330557585528585
1.340172173775357
1.359969356771136
1.179077896876703
1.186228916943857
1.191629265135294
1.18421105349978
1.181624555696155
1.17752682095701
1.18940136053497
1.175022736632978
1.182794808861816
1.181125577051993
1.180908521161464
1.173565889886909
1.174871572552393
1.179302668963307
1.196501712101543
1.199321588544661
1.209789070600417
1.206834281667459
1.187289038776798
1.196788366145395
1.194653245244222
1.216251084203085
1.223701335580226
1.241871173227697
1.220193926915636
1.214547602423667
1.203792620023442
1.237713165226261
1.264871538471541
1.291362605580244
1.235246272532635
1.287220919344068
1.226090684250621
1.260195389193788
1.235986605374932
1.184863909237073
1.182221526686246
1.183510901618523
1.184372461175011
1.184543687339315
1.185751460070749
1.183045870981502
1.184464589782883
1.18572885580869
1.184493100649962
1.183294468640765
1.185258924776695
1.186685932373718
1.18813726363947
1.185424141750852
1.185606476321589
1.186835682919356
1.184055043617261
1.181482560909153
1.182616842084979
1.183462278018827
1.182288334530809
1.186708434911005
1.187799797065185
1.189065466864106
1.190036804838312
1.186107207310645
1.188713709879394
1.187632593904509
1.197917825314305
1.195812005112
1.199630527760772
1.194288277845712
1.19640617423355
1.192371433328341
1.197990682633024
1.190202843810887
1.195526312509996
1.191992678882037
1.193024750028653
1.195082552932394
1.191193497142563
1.196633301544578
1.191211432832946
1.190119418755677
1.192655073238959
1.191225077496331
1.187177710558599
1.189878150219133
1.188761930101191
1.225828441057653
1.231789245977382
1.23550518491993
1.237656881379014
1.223475360450921
1.227694655809119
1.233671048245556
1.264472261973106
1.256679623610049
1.272442391495893
1.252781421489363
1.260696401228824
1.245859391543821
1.26775362789541
1.238940269599375
1.243617478520675
1.232838721144448
1.240325880425746
1.225447970897054
1.230003027462946
1.236124724306401
1.24100324450322
1.260971147070106
1.24710868845162
1.249638019687564
1.257407635801958
1.243314924590099
1.263990514973975
1.217610646928567
1.207724233574269
1.210675375702834
1.212136237795781
1.21657704840301
1.209111138391372
1.219249221212262
1.207465488050301
1.204224079916933
1.209660679943664
1.207694450680032
1.200011571056509
1.202437577205186
1.205681537876396
1.220687875901244
1.223746794088574
1.216129259913522
1.213935690566124
1.218494374938108
1.210708127136336
1.22127257302476
1.202908920818842
1.199761825504951
1.204759355497691
1.206075517682625
1.198666007552979
1.200963044017836
1.2041192536968
1.359387509196414
1.307110502507467
1.339871495245034
1.325490441790326
1.367293632513742
1.331472992040399
1.31185651903255
1.292095507215723
1.300966885997024
1.316533854794034
1.309268580102326
1.274715769426473
1.286309720596229
1.295767463075238
1.287642886756098
1.277993504764193
1.298863613717919
1.303487317742408
1.271274180994844
1.281692437273521
1.291150759631807
1.389300488635874
1.323698407095236
1.348327770035076
1.346361059644401
1.377155246900052
1.33894957976803
1.316700660647069
1.138938821312643
1.176136419140687
1.171403024993266
1.198914826046974
1.202840810203061
1.213894294938421
1.219324842857486
1.194243534816357
1.201802573343157
1.207507958888613
1.218172759755332
1.228546704978401
1.247494048494825
1.219841855140664
1.254498301638455
1.234866353037403
1.210642412808596
1.181173983132109
1.189022644560344
1.194718873764582
1.188247325580375
1.198810670207871
1.192714795123333
1.183837923120828
1.177001154532783
1.185404112125797
1.183646453850046
1.188846812975748
1.179533070821332
1.180955548851233
1.186969545209518
1.198634989242888
1.19482057430994
1.196823703234205
1.193896253803577
1.195632036192139
1.269298943317331
1.261394404422178
1.278147028278923
1.27468117741243
1.285176586862819
1.267164255934967
1.258098746448622
1.242510916213501
1.247581544880159
1.236238337085788
1.252397265239332
1.234644108436376
1.240345698510205
1.246511449881078
1.304224954005868
1.281526396408621
1.270419548920907
1.282647819779729
1.293698479116049
1.274110897598586
1.263259280549459
1.257129800704997
1.25115847842611
1.265200123687486
1.258163289490402
1.238574142497279
1.245234051951954
1.251551339933867
1.245528740656655
1.229304439935141
1.235106116833316
1.222791407078713
1.219236208290347
1.226408986991458
1.209694775330057
1.206338777102473
1.211995237861345
1.214771158078416
1.205966877594986
1.212178263937813
1.208844171884632
1.223449959494273
1.226703356415526
1.218740618484193
1.221861658624754
1.226536231022747
1.217947691925954
1.230253301137176
1.239506864613233
1.225536687652003
1.230385011890477
1.225081198396194
1.221062628097749
1.234456531187564
1.229921939822749
1.218025872150135
1.20854285504032
1.218621381898307
1.215215005180876
1.215243054769773
1.221881533300695
1.211768760632773
1.213252117775811
1.20533260596091
1.208344840462682
1.20224072138333
1.20112313899261
1.204323156450864
1.185870317424082
1.187177482188162
1.188868608800898
1.187463404414375
1.186668291575161
1.18816587590162
1.189665399996195
1.189895045765524
1.189989198555718
1.191452577075251
1.188311113780507
1.191886607496996
1.191983415706301
1.195899382639284
1.192365917979519
1.194188709271336
1.193513651104435
1.190190939273285
1.1908150123352
1.191442833741682
1.193062343347121
1.189339843366339
1.199791364187401
1.197607898208376
1.201567737697819
1.199721594076268
1.201876776214594
1.203853791613996
1.197481336133157
1.19284937530956
1.191714605722204
1.194338142538885
1.1963134611028
1.1917470127856
1.194676425967206
1.193583519202653
1.202173205862628
1.204423559555133
1.209631579150201
1.202397437918194
1.206513922169938
1.199704689223891
1.20503564623505
1.198599628071888
1.193749152531387
1.19931654200587
1.198245979493123
1.196883881008129
1.201258779493643
1.195741790969453
1.181132889094104
1.181096784870795
1.181333669082606
1.181615732003424
1.181655192597572
1.181294919987445
1.254389469135928
1.261700242175507
1.261837488423962
1.254262423007335
1.247621570405003
1.24135069231304
1.241456588500765
1.247506038044332
1.279222126077446
1.26992421856798
1.270077735087872
1.279051133740893
1.289422103089481
1.300639702211824
1.300852120460744
1.289229218543222
1.193214576291189
1.195056915725195
1.195107007977398
1.193165744015015
1.191483728254995
1.189861098964961
1.189906553788739
1.191436598148408
1.199423777860465
1.197121158092036
1.197173425184373
1.199369030644638
1.201869624241015
1.204464591007365
1.20452399848459
1.201812263466135
1.623188860212516
1.545640485070575
1.54693407532752
1.620622092164356
1.18331567920087
1.184057935805855
1.184098587383023
1.183275003396928
1.18264849196129
1.182054664536905
1.182094708159547
1.182607963014559
1.225945615623179
1.221521652502943
1.221600739239191
1.225860767827073
1.230673970744244
1.235728242095252
1.235825253647348
1.23058255534386
1.345334438139682
1.364545000053921
1.364895543915959
1.34501681723155
1.328462207480693
1.313527398964883
1.313771356277078
1.328186338229031
1.186030703157849
1.184961093087417
1.185002408678651
1.185988363045064
1.187187101293751
1.188432293199909
1.188476354812014
1.18714372785845
1.21392519864909
1.217529707881946
1.217603514104173
1.213854702426026
1.210533524782239
1.20734369662275
1.20740644409585
1.210467076461291
1.415500883380019
1.387537166149838
1.387947558545872
1.415034563241781
1.449218219314628
1.490777489779678
1.491524636579454
1.448636506784838
1.6132356876965
1.35327804264336
1.546176345226969
1.640747198682154
2.463244229132646
2.065585390327276
2.34032409810362
2.298801923655517
1.892347506012731
2.05672235752731
1.711751597773245
2.204636071135949
1.753423025912167
2.335828062917842
2.025517892798973
2.043515479010087
2.162148946921049
2.150332651355145
1.637554542821317
1.994814052041157
2.210976195205559
2.042663216785466
2.473376848993612
2.528637497534823
1.178327364716969
1.004232226762872
1.220102634012129
0.9124195443643729
1.134055715684101
1.165583252703499
1.012529152002728
1.014515892639788
1.209263446875669
1.049488547254779
0.9781807017188163
0.9283137656929085
0.9417284215665759
1.637412028712584
2.039092420568178
2.190726786064678
2.273701197400672
1.21738397072551
1.264621868818087
1.282528912061191
1.290254897067903
1.270836040452425
1.207344903786962
1.213167023633085
1.216043201833797
1.209929094161691
1.187762009001563
1.189485379355017
1.198403967128406
1.202462524775854
1.200571848012328
1.2048143661195
1.196414200227901
1.199496566353673
1.1976340278522
1.311704403566884
1.287829554754743
1.299798069487984
1.278432365788553
1.250122004233625
1.238234360470323
1.255250890742088
1.242562088084375
1.254089751324758
1.269085962929832
1.261467762874404
1.247768473902664
1.220755273610101
1.228238217195714
1.248311947209267
1.23730715363974
1.228354809759107
1.223349046242582
1.232072266628401
1.219439788196169
1.216543533316119
1.223465199210082
1.212966121096227
1.241859031496747
1.227203964611349
1.236514122661454
1.231805480834525
1.214567173282219
1.209485336238896
1.202048535506246
1.205347721991543
1.188767491796429
1.190298206661926
1.190530522829389
1.192122476772105
1.191477031264896
1.19377403766871
1.192569799686425
1.196679021626617
1.19492433306665
1.194235427899379
1.195067602776936
1.192385449291911
1.197090094573229
1.194295168050346
1.203100339501565
1.210792427311631
1.207567030442112
1.206050245229269
1.199442310924765
1.199079509288032
1.202176602743072
1.196511053057129
1.186283777968372
1.185027257791749
1.196559696455304
1.20046783113776
1.195002267077678
1.198787451602775
1.259554260101354
1.276293572617535
1.255412676217845
1.271239628107611
1.205161189003273
1.210746677495774
1.208720018024953
1.203326678511175
1.29727531144356
1.324171645747277
1.315950121571473
1.290935609642098
1.183121281473398
1.183977953877349
1.187256452609991
1.188736512297905
1.185972907023493
1.187411243032858
1.185405661975884
1.184028022383202
1.184901788592963
1.186306275922731
1.196266901788229
1.192659485605092
1.193709497416564
1.197395561453821
1.193342559450208
1.190753268596408
1.191882934000682
1.189369937711065
1.187279838562694
1.189681935204538
1.190669135330318
1.188217918743441
1.26397739717557
1.249413243753799
1.252072219319327
1.267189057306326
1.245904710167049
1.234651474112736
1.242435854324479
1.231688484146074
1.22733961540833
1.237375547081513
1.239622613832999
1.229274277079264
1.225258309035494
1.215115799937781
1.222685672592909
1.200584105064705
1.205701642851738
1.207050271268753
1.201810960610437
1.2188890797637
1.211752329830479
1.213253228666779
1.220580729842185
1.281910809192426
1.30437257546414
1.309467172407069
1.285892789018389
1.410550197423915
1.394427178384071
1.360088853935282
1.348925026933196
1.372211009444351
1.333385976751963
1.381897170902858
1.340200719983804
0.857201152557737
0.9366327614202073
0.8971377092958235
0.877695234081756
1.385223288103326
1.317752792047184
1.393973644203166
1.290928958382106
1.298373432635512
1.636760252936022
1.502661082224996
1.28837890732947
1.223680353337357
1.281444582719234
1.217490154849234
1.259637216178056
1.158210074844826
1.193948217371424
1.19572431705773
1.501554654472854
1.369472299408365
1.444249376950064
1.529406001336596
1.344442320239386
1.453141498722874
1.357695251473077
1.715883023423681
1.639212174769783
1.751501025828472
1.718035713752085
1.800875545134942
1.622135020191209
1.500860027273202
1.627154946656471
1.220311797253533
1.262530178119602
1.242639038403879
1.212992579977805
1.36283847264828
1.413447467871865
1.34438490909818
1.348612114739081
1.389049278420131
1.346070569954054
1.314491898231535
1.317163895814202
1.306146492994323
1.2775534402382
1.284440477690539
1.256864984509536
1.27229843726295
1.267102497815475
1.290351517602827
1.271408318883124
1.226226168515943
1.197565861198567
1.204911978792999
1.213502559669293
1.193269129752748
1.182642699137339
1.184109282094
1.191234669855559
1.191557672569099
1.20407692137071
1.19746323055377
1.187068482367275
1.199868561746645
1.199712049059609
1.201802425764779
1.197672477688631
1.198596649221304
1.196641998891478
1.245875596732459
1.252874470127183
1.241366091466813
1.234886550471336
1.231822166082208
1.219561112541688
1.227369828341308
1.224008327628484
1.212222134885798
1.214378343345689
1.217517012396422
1.208933810211095
1.20789512458923
1.201864565282514
1.204465237205721
1.205451413558805
1.123639689694315
1.273487230771648
1.604223120962243
1.269760694567049
1.755934529781858
2.005832202186845
2.341598093888764
2.064924102409518
1.979856273602906
2.410063782029035
1.887994836622007
1.57204789432991
1.252089712660164
1.054497051049084
0.9941154053364059
1.199458328760847
1.200763396874694
1.202758182952839
1.233961357286267
1.225760648470241
1.256229462303682
1.243974387231911
1.213511525738011
1.219019188070491
1.209045370733982
1.205496549098063
0.9590139164150498
0.956786333947185
1.007613588863615
1.061271401361543
1.063964080341067
1.057692361213324
1.041568021716496
1.038960089804659
1.040653412727403
1.038387208029493
1.129051623118503
1.128682688598997
1.099411809224348
1.129378618151262
1.128868155868058
1.102675891698499
1.100524231727318
1.148646720948905
1.148158815642881
1.138950656191069
1.138843183505199
1.138969655059321
1.148533866389508
1.148280068567541
1.152840828584732
1.138420957576786
1.136109303529495
1.15262025452219
1.138192170729801
1.152339708647594
1.152982973131466
1.145033975252838
1.12699872227582
1.132374198616544
1.150533116061396
1.126373564584481
1.15006729961009
1.145728960741222
1.515621410218694
1.429182904755968
1.608739269081562
1.441113643088237
1.599740648152412
1.52503453215836
1.425521384014204
1.097708781983985
1.120201267707772
1.088793353468106
1.122385699654718
1.128250861731204
1.09044592707409
1.098939336615854
1.073236183194603
1.093747206821662
1.091319335397801
1.074195145190675
1.071949549171723
1.094717988211104
1.092425357746557
1.062279463676739
1.089588431879155
1.080949063501929
1.070998951287425
1.063255877596158
1.082411444741497
1.090785358010845
1.162054647271626
1.160288070303261
1.170265300700119
1.172142072026011
1.169205853241246
1.159683771845762
1.161519362849631
1.166201094113428
1.16557758472435
1.166548512625778
1.157976100269974
1.157090544312914
1.157750071746636
1.157322173210423
1.149343226143065
1.139181190457972
1.139391893891432
1.150228331756154
1.139180638088261
1.150295899986316
1.149247286790221
1.138989933593351
1.149140417353537
1.148817914782958
1.148857243635981
1.138884503527839
1.138991534127972
1.148507490966845
1.139142186356404
1.150539193087571
1.149743654152981
1.149518375574706
1.139309014252825
1.139162381479209
1.15041135648796
1.171426022920256
1.168140684594364
1.168492417671574
1.159261361999666
1.160937164321565
1.161136015722573
1.159044790696588
1.168311309945359
1.158433235604003
1.167334915410792
1.166281955717604
1.167255278236172
1.158419200004932
1.157775157520334
1.065854945228123
1.115322162830939
1.084289497281618
1.11804994735865
1.093273641580441
1.086066698082561
1.067678327768415
1.052664510303531
1.060455126500407
1.076772080585059
1.060622743166209
1.052986813013229
1.07830049870052
1.061855616751468
1.164234787930043
1.181737318700267
1.166592928245516
1.176045777427459
1.180827815885042
1.166380706112323
1.163819912193839
1.152337260971945
1.139308149790634
1.139460245944449
1.151346328169499
1.139165844005409
1.15136943618142
1.152381251386958
1.134263623733797
1.136913932360159
1.150716728855269
1.152519223558732
1.135398036870372
1.137706174874732
1.151733001986243
1.191474986216903
1.185453813537159
1.185720310429756
1.168837037462688
1.170993288673949
1.170858725635236
1.16882034039355
1.151368249091709
1.151971278710047
1.138335528771632
1.152219289557948
1.139282598842596
1.138856223690254
1.151391569674431
1.168712818296488
1.169895829274394
1.191914498938404
1.191724145782931
1.186242294281831
1.168831199079713
1.170533936631464
1.175343497112884
1.179851433820613
1.180177238008731
1.166187195312614
1.163339729326907
1.163506396791535
1.166076555741649
1.137843614213712
1.154665086533939
1.187173825670212
1.174972385540424
1.191585635287037
1.158411099167181
1.142738187443593
1.136159530347352
1.118313402158451
1.105582520245843
1.123798041056716
1.122635019889406
1.117543303024249
1.137104356897389
1.147484788783854
1.123125022579124
1.141295169899136
1.143585098369088
1.131392213670042
1.125094609537743
1.149081952003342
1.1963816678412
1.198911510095619
1.198408501862395
1.168556661011983
1.171630806460638
1.171265369243433
1.169248017149554
1.116736550091648
1.113624739804559
1.131214735038682
1.134214741281618
1.103826602747708
1.120277660926266
1.115984043746091
1.19540461324843
1.164584756418793
1.195013147212348
1.196107825762231
1.197224190341234
1.167062657095258
1.170455390273489
1.179254720901823
1.195265150908815
1.19416329872771
1.160756201131248
1.14744833268551
1.145925549646068
1.161855929130605
1.138921945020083
1.149453421638995
1.149171682527752
1.149729636549222
1.1387511243488
1.138724631924879
1.149506655196331
1.392223064580397
1.414772099827107
1.52664663682054
1.538677690244964
1.399225346142423
1.407859779315763
1.483380462902465
1.128077669126547
1.127628628909899
1.098632531272821
1.126534754215777
1.124217479641138
1.097747837904137
1.094823380784401
1.096856548892672
1.120716769677489
1.08768469722271
1.110959105627643
1.122353169480283
1.082716902137881
1.092770502966382
1.066139215661387
1.069044447425783
1.06159752670105
1.088773170619103
1.079977535437086
1.075681640534034
1.084968567727391
1.070301547835865
1.069888235031443
1.072619004278688
1.093072079862507
1.090554106760973
1.089765404355237
1.086926032566381
1.064671192237298
1.10366533648396
1.083110505087147
1.104542388359864
1.076707211951206
1.077956714088426
1.059834078518028
1.058986975323929
1.05080690304263
1.048429071717582
1.059510348736994
1.075766111759805
1.071407747873934
1.055545107877593
1.171006777562246
1.158551230174869
1.131263431669913
1.149352414450971
1.180455304292192
1.14237644078261