/*--------------------------------*- C++ -*----------------------------------*\
  =========                 |
  \\      /  F ield         | OpenFOAM: The Open Source CFD Toolbox
   \\    /   O peration     | Website:  https://openfoam.org
    \\  /    A nd           | Version:  7
     \\/     M anipulation  |
\*---------------------------------------------------------------------------*/
FoamFile
{
    version     2.0;
    format      ascii;
    class       volScalarField;
    location    "0";
    object      p;
}
// * * * * * * * * * * * * * * * * * * * * * * * * * * * * * * * * * * * * * //

dimensions      [0 2 -2 0 0 0 0];

internalField   nonuniform List<scalar> 
12679
(
-0.05173570002872249
-0.08085163250743614
-0.07888114673505081
-0.0992980979755201
-0.1033869011693876
-0.07357301586349276
-0.06624541527052344
-0.07010582142485376
-0.07006278270010341
-0.07710831002454277
-0.09729832628531812
-0.09113167587980132
-0.07331686282701746
-0.1959235364725072
-0.1147697109377692
-0.1235055710382926
-0.2041436789408546
-0.06285329960450749
-0.06216787890872125
-0.0715725503696802
-0.08107131877143135
-0.08239719863074599
-0.07073969708707886
-0.1309210920183302
-0.08697654967964605
-0.08894720780745283
-0.1239796788639391
-0.06315176877877703
-0.06399937478771246
-0.06466392044454858
-0.0624638880515287
-0.06941710062072919
-0.06481020350973195
-0.0654990875704772
-0.06870557586193742
-0.1616710082987307
-0.3586590020117058
-0.1505537153056378
-0.1693136426343931
-0.1990401390036345
-0.0609637051799965
-0.060866251195037
-0.07052238204849831
-0.07534279049190332
-0.07320003233646007
-0.07086451305856103
-0.08139351328183173
-0.07728887557496587
-0.07667790083835253
-0.08517895844806483
-0.06189089219155005
-0.06262714670671084
-0.06232539087165432
-0.06191367168323079
-0.06362826933649382
-0.06292558828595213
-0.06287006248976446
-0.06404614217144702
-0.4957675096524768
-0.2485571288992865
-0.1887369631550267
-0.5667691794321271
-0.5946135739014705
-0.06094834692774727
-0.06118423010526886
-0.06109378582362927
-0.06092756630103061
-0.06941122808310796
-0.0669732086332987
-0.06763492273368063
-0.06971002142418785
-0.08764382870344301
-0.1046254141581964
-0.09664676271596827
-0.08878557963783755
-0.06170991668039855
-0.06129318199362819
-0.06128958395837227
-0.06172695309920859
-0.06440230678182102
-0.06625015130734652
-0.06608064029029027
-0.06451046365479353
-0.1485773323217451
-0.1126395251709374
-0.1100721631164644
-0.1572157737649847
-0.4009294415172762
-0.357137967138608
-0.08818782993814722
-0.06944637400268351
-0.06827946579381529
-0.07812478915477238
-0.0697981530632618
-0.08337111907040817
-0.08146944487390254
-0.0836520661331021
-0.0745619820358398
-0.07732970176223866
-0.08198232176426538
-0.05898105244170729
-0.08223273463733068
-0.08643821911720916
-0.098611328289372
-0.1030905239530028
-0.08880791037895373
-0.09675708770812187
-0.07838395392456071
-0.1555172628321656
-0.09851289229921491
-0.1033250415069993
-0.1179444552784921
-0.09329317259903397
-0.118202698524771
-0.1649725025638854
-0.06416159497337587
-0.06683484437155675
-0.06678468406867952
-0.06735134024163124
-0.06323708178000272
-0.06376881857029827
-0.06499281222796563
-0.07064891656902192
-0.06805824543025422
-0.06554727611131941
-0.06857767196229114
-0.06641558771171623
-0.06361615768338053
-0.07830370176622632
-0.08693152041102402
-0.09846795649158589
-0.08577474760119849
-0.08663971615244737
-0.08825320564811266
-0.0740138445477858
-0.07236848257515861
-0.07390902363078843
-0.06656773343630512
-0.07824296808965119
-0.0687088772159145
-0.07893066757313751
-0.07145233093563889
-0.1968299924954568
-0.2616488138026769
-0.179278359037645
-0.2009618391018401
-0.2068214578548853
-0.2620474548279183
-0.177065251502952
-0.1362748783360644
-0.09421453294319429
-0.116373518153394
-0.1402070964165857
-0.1055825543616468
-0.1421324209144293
-0.1365766090801589
-0.1877093136514794
-0.2028123289268709
-0.2957593350501369
-0.1732126429046357
-0.257212391234462
-0.174506551201322
-0.1632179219837604
-0.06123271534194518
-0.0617585730161854
-0.06189810269162804
-0.06118733123336575
-0.06136834641966382
-0.06227935342343192
-0.06194637186335727
-0.06137324034156677
-0.0620591086813894
-0.06154348543739404
-0.06108993167024568
-0.07313351266059087
-0.07667492930839827
-0.08133114637008057
-0.07668060652775228
-0.07656022270835194
-0.07689092442734879
-0.07177698668513122
-0.07049519028766922
-0.0708834048797026
-0.0675624757921704
-0.07332781403991492
-0.06844457709324066
-0.07348827888926755
-0.07051876648130626
-0.08741609372372913
-0.07882971879348213
-0.08735052980710745
-0.09510657317541285
-0.0811409955395886
-0.09561195804737382
-0.08764626285340259
-0.09643458779389424
-0.1251463534925922
-0.1101774513035022
-0.1067323472789485
-0.1101300418173025
-0.1075003378052973
-0.09175526837222085
-0.06250742580361673
-0.06290645339987064
-0.0641083382664792
-0.06335871537878093
-0.06346943744186859
-0.06302744597487615
-0.06214763754635003
-0.06209766873247241
-0.06257573525886508
-0.06148826417004865
-0.06285361168558008
-0.06178217920266395
-0.0629634505227805
-0.06194854408699327
-0.06450570704187131
-0.0632252179221091
-0.06492212650230564
-0.06582504134067595
-0.06368477868511462
-0.0659362809662133
-0.06442012246318647
-0.06553575498457667
-0.06882866790662188
-0.06678225892430514
-0.0671028705999402
-0.06682160339831374
-0.06722218262847128
-0.06491793476194974
-0.3316054949877008
-0.4181103883813336
-0.1717550835249927
-0.3355856194131
-0.215523821441345
-0.2539927139864321
-0.2508931322005221
-0.2553327476158673
-0.259019704498374
-0.2755913548008701
-0.173638620601977
-0.1524093682515346
-0.1197546200325077
-0.1922254391955659
-0.1327313773383804
-0.1952747220356365
-0.1731663799560266
-0.3951339252550077
-0.3303776716259303
-0.4133584944369953
-0.3221186420366621
-0.3509085783293915
-0.2946646015617767
-0.308181437338594
-0.3270321619580993
-0.06086233183222872
-0.0608866529774249
-0.06089680027573082
-0.06084453070088215
-0.06087396670762625
-0.07536145810365806
-0.07365446825780159
-0.07367469157476632
-0.07088299651637074
-0.07217118741330583
-0.07218969939216041
-0.077312841367683
-0.07953310583749346
-0.07956129203500964
-0.0852260673213881
-0.08213838990783878
-0.0821775196847742
-0.0626511816514522
-0.06236228653148741
-0.06238724427501873
-0.06193900558814373
-0.06212520432110027
-0.06215042329021002
-0.06294944412885296
-0.06325988570569643
-0.06328349307960721
-0.06406820677347351
-0.06363217872594194
-0.06365548069140146
-0.529477832280004
-0.5983682976455106
-0.1891926781080395
-0.2420782739160873
-0.2424408137790179
-0.06121068166489943
-0.06109054417258313
-0.06111827475676107
-0.06095786593744019
-0.06100621142033579
-0.06103576942441044
-0.06699301675252928
-0.06778348291274698
-0.06780286270546401
-0.06972740637668703
-0.06869150868403399
-0.06871097087168129
-0.1048686477000793
-0.09827161559990434
-0.09844673756858681
-0.08886172699361429
-0.09308195316452444
-0.09319175902371087
-0.06131939852048944
-0.06141954902228038
-0.06144581657630533
-0.06175243382926841
-0.06156363643920839
-0.06158976964977291
-0.06626981532530475
-0.06560681164058749
-0.06562812128405943
-0.06453240534703551
-0.06502908254865489
-0.06505065078251943
-0.1130169848384262
-0.1230010009087809
-0.1234946253356143
-0.1578055664983771
-0.1370400681237545
-0.1376792278972767
-0.0633311914077371
-0.06560654620928179
-0.06362708780167144
-0.06676972858728721
-0.06513448710619127
-0.0658948451855412
-0.07213215199659075
-0.08181660824238138
-0.07473632718327518
-0.0832981385776258
-0.06993207904179573
-0.06824489523267323
-0.07067782558802235
-0.06597375612879879
-0.1355088014433937
-0.09535210756397856
-0.09016418195731524
-0.154781474276886
-0.06159343563147889
-0.06210250304478851
-0.0625076619504651
-0.06265356970931014
-0.06229892462875578
-0.06176307253635635
-0.0619398296224077
-0.06118173897725276
-0.06153308936875589
-0.06127556255501822
-0.06176545179430981
-0.06142459402638579
-0.06162189772367535
-0.06148202141106188
-0.06251564612220363
-0.06215266917325143
-0.06183604081818314
-0.07069702141080429
-0.06894873888309613
-0.07419498662933777
-0.07119055703758842
-0.07100992767249802
-0.06864593439526837
-0.0737784621073421
-0.07146526117298597
-0.07468566515693199
-0.07436293985247434
-0.07174912099802651
-0.06921442102075703
-0.06772711506707586
-0.06948738107234159
-0.06745151498294219
-0.07336771299720536
-0.07782381626720315
-0.07724583892409201
-0.0817738091141194
-0.07682788724571275
-0.07371527231754146
-0.07732074220509419
-0.09748971185155965
-0.1156025134774222
-0.111009012916801
-0.1272345507762109
-0.09920043802443587
-0.1121759121207228
-0.1089112805792805
-0.08337781425594863
-0.07862615356442826
-0.07819729895891157
-0.08405762926274885
-0.09067469048032847
-0.1039817583001858
-0.09193111041556352
-0.101400251148824
-0.08799136878823655
-0.09777184973454776
-0.08210751480126673
-0.0880745779782458
-0.08152457832491758
-0.08892463170972145
-0.09647177061726965
-0.06231211330130295
-0.06233487072062055
-0.06352645603926924
-0.06280978622838201
-0.06200049659548795
-0.06264141272254017
-0.06318841505227055
-0.06227290080269011
-0.06304721798943277
-0.06259669865818554
-0.06273048665310078
-0.06191209984659003
-0.06196962768437668
-0.06163416598633047
-0.06224193952599652
-0.06272020908517151
-0.06404290068263362
-0.06355280786569517
-0.06433043176032796
-0.0630447670908283
-0.06370544724492816
-0.0632343891184074
-0.06573502144178692
-0.0673132165176837
-0.06782487484344918
-0.0690661068669646
-0.06701431168736385
-0.06603772004155162
-0.06748107780028974
-0.06402785345502711
-0.06361709390047018
-0.06330803200252839
-0.06432819152760114
-0.0649280359504537
-0.0663294437899568
-0.06604701121588992
-0.06521958510605451
-0.06470405499106339
-0.06649295234323668
-0.06420335151950474
-0.06516358791107701
-0.06389025383124033
-0.06501060025943509
-0.06615919514436833
-0.1816971735960961
-0.1438701034838346
-0.2112264585584976
-0.1554926715486656
-0.1368287163656827
-0.1956927727004382
-0.2008948111673805
-0.1486268323867709
-0.1242305924615557
-0.1184441859193513
-0.1627854555770245
-0.2346179926730413
-0.1536517117682935
-0.1783050251891228
-0.2237136096505155
-0.2371429257562328
-0.1634323251797634
-0.2166322791979053
-0.2377669360482866
-0.1586840627375586
-0.2759975874878515
-0.1473170940733633
-0.2072079855814936
-0.1327263555014042
-0.1399455779547683
-0.1893895412375028
-0.2580379031039561
-0.1874662854503827
-0.2641875170282404
-0.1882288890983383
-0.2799724409548744
-0.2503794627354957
-0.1745859481076713
-0.08321377356199094
-0.1859950135859089
-0.1291708204021103
-0.07993828506432758
-0.0950981894319755
-0.2730660740181415
-0.2046270015634497
-0.08561472494222309
-0.07613859820067136
-0.0724049479996975
-0.2184922340833302
-0.09820206347649482
-0.115193935311273
-0.1638735062660694
-0.5611353823583176
-0.4338431656015529
-0.4985257794692092
-0.5817394301159972
-0.363148853959981
-0.5304409855054513
-0.3617977742186416
-0.5949492015114243
-0.2854256084228762
-0.08148676176592187
-0.09254395168936332
-0.06037201431299104
-0.06887286321299091
-0.08564404598150795
-0.05691831294040806
-0.1365501071900813
-0.1030645202578345
-0.08984663807674075
-0.1424016112740062
-0.225948766825388
-0.2509093551156923
-0.1801127096933895
-0.1699618228622751
-0.2245656271868683
-0.1783157554077428
-0.2168712639988342
-0.3779492667417535
-0.3231651747907923
-0.3117175436387971
-0.2490123580659874
-0.3040700568606442
-0.4089397024141127
-0.2708255136420523
-0.428592411594769
-0.3312637509972201
-0.4399129528522324
-0.204460438720883
-0.4196845374186642
-0.3003490197497262
-0.3237259616338641
-0.3801896714842385
-0.574120880428545
-0.5554376790669016
-0.5777845738840833
-0.5674712437020639
-0.5544188776819827
-0.592414871108458
-0.5406599717165482
-0.5165444302581619
-0.4454369193020237
-0.5275947659534294
-0.4254288684702795
-0.4898180496639858
-0.5599754818036379
-0.6034019730426869
-0.5407325765757653
-0.0952891170899578
-0.1002775960685325
-0.09035197836334474
-0.1162990773427872
-0.07305611309860857
-0.09084897363198252
-0.08228218701605572
-0.08897554584087003
-0.08369650866441739
-0.1776929275997547
-0.1550364014854455
-0.136534060446156
-0.1226914227179158
-0.1349547744909772
-0.1606628693142969
-0.1618611271073965
-0.08359230712118014
-0.07610065419994982
-0.1014910080786319
-0.0823086863397612
-0.08186051339668443
-0.07607507240834904
-0.06935498211750002
-0.07186359176300554
-0.07910071809094081
-0.07394737652260711
-0.08847323883529581
-0.08327885536976645
-0.08887771088295698
-0.09058279783770017
-0.08025110457668894
-0.0836987171393653
-0.07747787870095339
-0.07985757833743932
-0.07500878779717077
-0.07335338272937157
-0.06668697303510808
-0.0710971498952243
-0.06785377463108735
-0.06697486226450773
-0.07296362876129492
-0.07138602266746237
-0.2176040597819691
-0.1696093821974922
-0.194649904410457
-0.1544163464654966
-0.184056965499293
-0.134870991617089
-0.1518898190979459
-0.08999141431164639
-0.1002963214170554
-0.09401451218714303
-0.08597636219328646
-0.1213988799564682
-0.1309090906812686
-0.1035644999567378
-0.1001143074264863
-0.1022820743753786
-0.08815613144339567
-0.1019941505372636
-0.1110866164322138
-0.1169012751462713
-0.09805809681270822
-0.09079059262150871
-0.1826437379261907
-0.1217674821277008
-0.1491046431229192
-0.1095351047776753
-0.1369799945294131
-0.1012988670750157
-0.1198772115603203
-0.1089084154254235
-0.1073647846230202
-0.1248249419792708
-0.09484059482397085
-0.1778478906795889
-0.1465820002219882
-0.161504711823041
-0.1228550111082185
-0.1312676430926668
-0.1402245121527076
-0.115151200052746
-0.07135585489018818
-0.0675709572839432
-0.06905980259143006
-0.0659816016704846
-0.07177921935037267
-0.06965480502804526
-0.06742523735174821
-0.06947568585788229
-0.06672521522617811
-0.06635070719268185
-0.06515052295419808
-0.06783865831848215
-0.06840734692057063
-0.06477815066779766
-0.08261608969520372
-0.07152390211228372
-0.07557310190301125
-0.07359024446551922
-0.07514356614492948
-0.06978005203825462
-0.08035523432956493
-0.1041674099485251
-0.08235038136681061
-0.09404962754979221
-0.07986976632027372
-0.1007374444351885
-0.08839177859054401
-0.0905704335064168
-0.11475217467449
-0.1508011714786278
-0.1498951050266635
-0.1426748666646366
-0.1193196736899244
-0.1094168303446056
-0.1455527527117416
-0.06257123705316975
-0.06313529708508858
-0.06241366021244935
-0.06301937265399141
-0.06394129376218427
-0.06317200630193295
-0.0637491158558519
-0.06529523855152521
-0.06457295830239541
-0.06367354777827963
-0.06438328933891961
-0.06542057435546822
-0.06466167822396923
-0.06480349387188336
-0.06376590598796165
-0.06469998823799283
-0.06391349801691436
-0.06451051069648313
-0.06300278158313428
-0.06231430548903533
-0.0629236654504662
-0.06362009571782228
-0.06279849647470524
-0.06399867197266235
-0.063099356307353
-0.06368781835729515
-0.06423425113087856
-0.06460186421090251
-0.0633936470058102
-0.06738818514378289
-0.06566460310399007
-0.06614164923836814
-0.06479904206887294
-0.06648943602116097
-0.0658707240532297
-0.06528521601921598
-0.06451442380314501
-0.06399880535527748
-0.06349702025272859
-0.06407846519075168
-0.06573313498127484
-0.06511538666209805
-0.06457261214604375
-0.06625611846958551
-0.06501188143042728
-0.06529021594705138
-0.0644159090158775
-0.06499116700890316
-0.06535629715867027
-0.06412901989293487
-0.06938763906957299
-0.07481262422049922
-0.07146724451091348
-0.0720402165832827
-0.07280489325072938
-0.0699447467745329
-0.07554338007878199
-0.08724094423356393
-0.07653321804287219
-0.08049230864705534
-0.07560640988151254
-0.08567077039066884
-0.08052600013474533
-0.07943700274237103
-0.07764565883066513
-0.07363026509021764
-0.07149487993145136
-0.0727603511543114
-0.0737002571676965
-0.07064673124285255
-0.07651824730192264
-0.07855781926273019
-0.07784675477997796
-0.07421977098541339
-0.0748370513267942
-0.0843219407434305
-0.07939679726417337
-0.07856257356330164
-0.06774449962235515
-0.06832026328477275
-0.06646969837602629
-0.06702468310983786
-0.07056668687077014
-0.06893670038509343
-0.06829684365767703
-0.0692672116569978
-0.06676495748344582
-0.06754643634788682
-0.06670439867886944
-0.06733933360824104
-0.06591617642730631
-0.06835146218352027
-0.07237195125163967
-0.06983050018473887
-0.0685595326671677
-0.06772047900336134
-0.07139837694135889
-0.06973782003752288
-0.06899146726866422
-0.06697236462007267
-0.06464376144596748
-0.06544548017597242
-0.06600520821310833
-0.06657432956523535
-0.06521048679645215
-0.0675763615164252
-0.120153169671575
-0.1137240606375578
-0.1410380058824822
-0.1014632101555971
-0.125016576100996
-0.1039493368938029
-0.1168963704248699
-0.08632341217438519
-0.1070458496796498
-0.09528136028319649
-0.09324045507502474
-0.09328133798756222
-0.08496929402286674
-0.1039852906157073
-0.09951875032964741
-0.08292027208642576
-0.09018831006860588
-0.09161049685685238
-0.09152257817759925
-0.08385702385100262
-0.1015338008334178
-0.1374190451615239
-0.1252927274449555
-0.110307798323895
-0.146948509299118
-0.1303839404210371
-0.106722542479713
-0.1205634958487764
-0.08535917966529757
-0.08408840561570402
-0.07926351696421059
-0.08589156686282134
-0.07407959059228021
-0.07853599289410465
-0.08285089454376422
-0.08383105475703341
-0.09043509351333343
-0.07768523884578847
-0.109049306368466
-0.08613015522993557
-0.09937844161691843
-0.1157457784922552
-0.1076888523683046
-0.09185952126304982
-0.1006151135717967
-0.0737740954666439
-0.06984817159861577
-0.0714222983107589
-0.07963602030215271
-0.07468829162245669
-0.07296042423443069
-0.07704708046925512
-0.07178471413388395
-0.06896843309589552
-0.06858147915436347
-0.07201568287594269
-0.07488751012643696
-0.07555977717710995
-0.07160359510879417
-0.07207942837269232
-0.07287839829128885
-0.07197556034840623
-0.07275332292294086
-0.07191031442284765
-0.08940167536827245
-0.07774387447705568
-0.08189856827569977
-0.09216167442008802
-0.083817776176282
-0.0793197066968805
-0.08574322565997547
-0.07915620138297781
-0.07474171544099452
-0.07255776721042673
-0.07614048568838537
-0.07769308900689445
-0.07386012317963397
-0.0809601947557842
-0.09085619882465171
-0.09606189415262061
-0.09266290038411272
-0.08457363155174943
-0.08664227034908864
-0.08152035264817266
-0.08876073013596759
-0.08646369731090801
-0.07759253207567654
-0.08043173820422138
-0.07799866375227872
-0.07979930406792539
-0.0755204632898001
-0.08340697435545733
-0.07778518861653697
-0.0793563347126577
-0.07606600163845451
-0.07739240188378102
-0.07392348835434427
-0.07480874732228207
-0.07040144961980135
-0.06778167116264298
-0.06856151801437706
-0.06975805195372016
-0.07063531366746642
-0.07171215325912894
-0.06897445651396275
-0.07361983764658164
-0.07086444487544237
-0.06958062844685055
-0.07079354960255256
-0.07507250416040541
-0.07323177023923276
-0.07210867840764519
-0.07549834594089908
-0.07225782870361809
-0.07692790252435168
-0.07690781295692778
-0.0749433700231172
-0.07364445451018201
-0.07398690194250192
-0.07118122961944448
-0.07218250577620325
-0.0751522860495026
-0.07201126623216741
-0.07331536407812571
-0.07284251267292258
-0.07038042843725838
-0.07326692348717943
-0.07430101292844862
-0.07280825614571486
-0.07372461950169104
-0.07224278338950219
-0.07247135411617156
-0.06637872479030235
-0.0656369066693361
-0.06687942388409128
-0.06763896283571727
-0.06650325976575151
-0.06572179394123959
-0.06585747462580203
-0.06695986042280586
-0.06794232760777591
-0.06708838873512538
-0.06776199360429586
-0.06839857486227674
-0.06941075230415618
-0.07017150146480984
-0.0709207077612877
-0.07005912107053784
-0.06851961328666556
-0.06923177648410771
-0.06832281079457665
-0.07079819937238167
-0.0699887280609349
-0.06910855937122869
-0.06847842364332964
-0.06669385987485918
-0.06716298594512056
-0.06789688548014891
-0.06973906864438199
-0.0683582745885717
-0.0691080047403113
-0.06733509698022742
-0.06605833083879327
-0.06632786018845516
-0.06754002531918654
-0.06822826157562677
-0.06858605790239009
-0.06728054413867003
-0.06930189577792466
-0.07124356189654997
-0.07137914621951039
-0.07229472120667425
-0.06975905842861926
-0.07059482931025095
-0.07092456779903333
-0.06895258897800245
-0.06969911276786557
-0.07174754473978061
-0.07034459138110273
-0.07005934775983891
-0.07058317187520097
-0.06870290674229129
-0.06081339152721191
-0.06078688967614721
-0.0608101362186228
-0.06080069876664912
-0.06083225318564222
-0.06078022560949487
-0.07314305439400676
-0.07472785368941862
-0.07475576170574269
-0.07311582590916509
-0.0717239330619642
-0.07044698572843708
-0.07047135821614658
-0.07169841742951602
-0.07874295118942415
-0.07657676921695893
-0.07660978268111192
-0.07870331316135386
-0.08121126156587331
-0.08401948701959018
-0.08408232201855376
-0.08116091603880837
-0.06227016452470308
-0.06250063148171771
-0.06252708842497455
-0.06224309049560093
-0.06204029640742827
-0.06180790692388802
-0.06183522743947131
-0.06201300079052986
-0.06314010210410281
-0.06278998261694728
-0.06281627992580233
-0.06311387665601891
-0.06350063455908285
-0.06387637723525921
-0.06390156144878333
-0.06347466876527352
-0.2169930678441335
-0.1729886893104844
-0.1730757011336879
-0.2172729680064634
-0.06103545557567933
-0.06109843332947656
-0.06112664275859903
-0.06100631080239646
-0.06095520018717502
-0.06085346545979971
-0.06088482537026296
-0.06092480935858824
-0.06750984090727119
-0.06670503506963756
-0.06672902840490129
-0.06748569843507161
-0.06838377146139721
-0.06933986681609067
-0.06936323005321121
-0.06835952088198478
-0.09630454271773031
-0.1018867909023441
-0.1021405888631027
-0.09611945536912156
-0.09148886255198457
-0.0873821034763678
-0.08747222006761451
-0.09136137241979664
-0.06135558739693533
-0.06120480938579782
-0.06123277336550934
-0.06132757759500451
-0.06149551054719277
-0.06162668963216121
-0.06165413527652659
-0.06146762086797964
-0.06541032386242816
-0.06600781920667474
-0.06603169101483421
-0.06538551819162498
-0.06485214777183451
-0.06432565150702972
-0.06435072335288874
-0.06482712834373677
-0.1185890592615811
-0.109042594888522
-0.109399195721574
-0.1181438221276739
-0.1307018586091778
-0.1471401186179696
-0.1475077803990185
-0.1302076402024631
-0.1913231077873839
-0.1060419173070481
-0.1711396193391444
-0.296883246569025
-0.5638427242173416
-0.6348414437441177
-0.562349449212393
-0.5852757362375152
-0.5433078456363696
-0.7206633245277476
-0.4029483109532755
-0.6227014166862338
-0.3715476106730948
-0.6650458580697373
-0.4941500670230181
-0.575213653643908
-0.5412779114797708
-0.6633526481130197
-0.5972988524664313
-0.5150583956234568
-0.6787951897667298
-0.5514287744937971
-0.7109759464686106
-0.5947319833455307
0.05999040882438007
0.1486591661054019
-0.06852606404806992
0.1683862844014864
0.04860795380667906
0.04446716923119802
0.1253343407354593
0.1021868730616605
0.05808480603768282
0.1009124705268023
0.1101975217930713
0.1450757564545437
0.1214984566187096
-0.5982080136205404
-0.5933745287812152
-0.7091067549084197
-0.5344088818173142
-0.0675806761600567
-0.07482239099773044
-0.07787840374472575
-0.07912838146298311
-0.07600264259023376
-0.06706552352674401
-0.06770687621349092
-0.06884081672066455
-0.06821119946541188
-0.0653044102848384
-0.06653758727325991
-0.06617083993487793
-0.06656040685581852
-0.06734671753678986
-0.06772042018196577
-0.07152807071411016
-0.07163298474434146
-0.07156708529901376
-0.08395474170272813
-0.07999332477752104
-0.08100860202545832
-0.07765428483467604
-0.07257441807142186
-0.07088066149288157
-0.07372193938866171
-0.07201322391841852
-0.07522964137257203
-0.07722986597978905
-0.07523499902122405
-0.07344082984073609
-0.07291928801899465
-0.07356988779182613
-0.07573782725388016
-0.07448255430405404
-0.06955848477954685
-0.06965326630297423
-0.07068448864922046
-0.0701783889148551
-0.07110978404987819
-0.07174111630980348
-0.06955260851803044
-0.07372137712104498
-0.07100024515318433
-0.07205891300300883
-0.07259360474609759
-0.07245037216567919
-0.07212257811935024
-0.07173752348996797
-0.07189238022250052
-0.06537226961926132
-0.0654837073715004
-0.06659952936731169
-0.06670165519318086
-0.06796906501469387
-0.06962231234059627
-0.06802428426667501
-0.06974920314248313
-0.0696697950043496
-0.0681158675321252
-0.06587091907857985
-0.06564726759227173
-0.06706234921939361
-0.0668531107978971
-0.0687148430865875
-0.0706383623492978
-0.06907304498306872
-0.0702959342955163
-0.0684470014716123
-0.0698713180449836
-0.07004638045652534
-0.06825370094112809
-0.06424917213635008
-0.06335635769307058
-0.06516591714074299
-0.06557053192863432
-0.06431800112034959
-0.06473685732882672
-0.07392750276123261
-0.07697129203028923
-0.07322510665357054
-0.07626481848924851
-0.06609074931781722
-0.0667472039526394
-0.06594528676916317
-0.06527227824825499
-0.08130206080028939
-0.08776215065377416
-0.08675833891104459
-0.08052808866367853
-0.06200699064449165
-0.06261231117092474
-0.06432212800114076
-0.06444160098586946
-0.0634338069584898
-0.06356036667589662
-0.06223037456990545
-0.06209208271330155
-0.06269371646208063
-0.06282643482595458
-0.06348314865437059
-0.06304120425108665
-0.06361268807209315
-0.06404396922593492
-0.06485196200336002
-0.06461566593318806
-0.063991257755818
-0.06374369195036664
-0.06242854978321236
-0.06269402619106559
-0.06327491917022107
-0.06301770831831602
-0.07513752896838666
-0.07215026751970807
-0.07263938945933293
-0.07566293768775405
-0.07167186025001421
-0.06996379073162039
-0.07095240535804685
-0.06922120116345283
-0.06811522829620066
-0.06987365662703079
-0.07035849408277869
-0.06860964676110123
-0.06862758378621858
-0.06679643943168175
-0.06786332205358149
-0.06404374445130952
-0.06474465490158679
-0.06528090674372131
-0.06459291292079895
-0.0667252508148235
-0.06562570672139661
-0.06614824708490202
-0.0672331765971995
-0.07921201141497675
-0.08495929721499081
-0.08586930949771737
-0.07984866983371129
-0.1171256712996717
-0.1132616232782504
-0.09820291290547045
-0.09651841815462518
-0.1074285206126077
-0.09357077533580162
-0.1105265080268559
-0.09511993579591262
0.1764890789891744
0.1169596711621054
0.1303097065746723
0.1534496906542683
-0.2429561495423186
-0.1257865501022835
-0.2896856256153561
-0.2606536524600735
-0.1089348084413019
-0.3086758503574119
-0.1661978026352205
-0.1960538507627591
-0.14501709529935
-0.1529606097855578
-0.1647171776547295
-0.2218194883432456
-0.1474557801194094
-0.1812466384129035
-0.1704214347114498
-0.2683032191749942
-0.1906391093225046
-0.1851879832566209
-0.3736536679131375
-0.3029317523737253
-0.3945330647585234
-0.211312741804768
-0.4519967010600558
-0.3209150908561368
-0.5083792113466504
-0.5913802836086657
-0.565051201507499
-0.571908037058505
-0.3847686332655172
-0.5418596711853144
-0.1243377568088192
-0.1203317779985528
-0.1003898358304347
-0.1079345696826983
-0.09699045855289928
-0.1130721570504964
-0.1525425764680352
-0.1114052386089207
-0.1376644527472202
-0.09442886957395591
-0.08754773908309772
-0.09709537631068907
-0.09488452978169901
-0.09804682905659436
-0.08805369330670115
-0.08970819152145071
-0.09606681300063574
-0.08362552165777043
-0.08321198225042144
-0.08025749497322364
-0.08904387443915893
-0.08904406630960035
-0.09652646283196706
-0.08271140221855608
-0.0760744947479034
-0.07895269343765261
-0.07970399200857124
-0.07561471993033518
-0.08428744043367459
-0.07913681572183152
-0.07713878312842271
-0.08136895570396649
-0.0741821089392511
-0.07530206985747109
-0.07427698121730321
-0.07512316409951934
-0.07412197367720805
-0.07499579950255848
-0.08514259855826339
-0.08056767392720131
-0.07853102599597311
-0.08218456775307501
-0.07711046894367071
-0.07850881577508677
-0.07997404364141993
-0.07614437636860585
-0.07498146213393399
-0.07735008837166514
-0.07545010506145199
-0.07659369189339715
-0.0746476573503304
-0.07560631914419287
-0.07442973934165038
-0.07598800511874243
0.0323685361686304
0.01093375483999182
-0.2909108676547411
-0.06543069613664498
-0.3481355831303362
-0.6047344739762087
-0.6985013903956188
-0.6905697632262716
-0.5504380108467467
-0.6845087355947888
-0.5092121905166389
-0.2737508980241353
0.0006582754708958482
0.07402971622962554
0.08600369641701971
-0.07372276789520427
-0.0737527934184624
-0.07380375708196632
-0.07570141248828599
-0.0750159855783489
-0.07815793916174037
-0.0767072102741105
-0.07422899564846558
-0.07454315928187301
-0.07402002968917204
-0.0738883019656648
0.095767720248823
0.09503467428893206
0.05663256806941148
-0.06437691122511593
-0.06506902999212909
-0.05860563605861715
-0.04889008459810391
-0.04539836450950498
-0.04834728314240948
-0.0450275468520093
-0.0826140939815327
-0.08434938636099784
-0.08138855089290026
-0.08042295026544286
-0.08406310219864058
-0.07983416475962052
-0.08066200897897985
-0.07775026865678876
-0.07646911747384119
-0.07961084115281088
-0.07930905768396918
-0.08003776128369283
-0.07726887088821476
-0.07694786576319192
-0.09641448143444792
-0.09467594109629845
-0.09948922271151446
-0.1028912254016505
-0.09497606746806594
-0.1032605824008191
-0.09596157363020441
-0.1160972612357783
-0.1057394798172342
-0.1034053727925598
-0.110108902567675
-0.1055101117217096
-0.1103071820575536
-0.1161987634839651
-0.2634277172075405
-0.2784931059801674
-0.4296644707543911
-0.3478091336763089
-0.4006216830749055
-0.2868845164055491
-0.2652263470000055
-0.08148651639182135
-0.0950104945343748
-0.07916268800232899
-0.09468156010143296
-0.08640512179461597
-0.07961049434359248
-0.08096859714783367
-0.0709188041784299
-0.07891424436984586
-0.07873546477415114
-0.07087268402902713
-0.06946104606101047
-0.0782092837580263
-0.07828917300875281
-0.06216181486262133
-0.07837451703028311
-0.07442633949023598
-0.06850336733988502
-0.0626052137553013
-0.0749227213409011
-0.07811306812949906
-0.08190412229943091
-0.07908360212128858
-0.07542669368025388
-0.07630078919450112
-0.07369527939645974
-0.07742693810858171
-0.08019080223494637
-0.07051444635258142
-0.07032466621189366
-0.07104312223887743