/*--------------------------------*- C++ -*----------------------------------*\
  =========                 |
  \\      /  F ield         | OpenFOAM: The Open Source CFD Toolbox
   \\    /   O peration     | Website:  https://openfoam.org
    \\  /    A nd           | Version:  7
     \\/     M anipulation  |
\*---------------------------------------------------------------------------*/
FoamFile
{
    version     2.0;
    format      ascii;
    class       volScalarField;
    location    "0";
    object      Phi;
}
// * * * * * * * * * * * * * * * * * * * * * * * * * * * * * * * * * * * * * //

dimensions      [0 2 -1 0 0 0 0];

internalField   nonuniform List<scalar> 
12679
(
28.40468599544201
28.95852970911663
28.95702812063634
28.30956006656272
28.2175692247974
28.66845530644146
28.95569861053836
28.66932924981531
28.86006538337353
28.57212070032308
28.28149510807905
28.3777302406086
28.57327079953984
27.88211556358014
28.18258487105911
28.18018894877682
27.88258963443828
28.83534762709814
28.83548195654976
28.3976856617412
28.24802257402442
28.24711068541093
28.39827037001987
28.03770765879327
28.19700294249529
28.19599430516941
28.03966399806626
28.78726551419806
28.64273805208687
28.64243332456
28.78743067626043
28.44710228775953
28.59424965489007
28.59390555271257
28.44763626080014
27.98295117450281
27.81095139475079
27.98527633046856
27.98144127690877
27.97481596195206
28.94355075293979
28.91932640178803
28.30937026917534
28.23339242290724
28.25867630478512
28.30958549951739
28.15552086715274
28.2077000935225
28.20740297063393
28.12950141313568
28.70268112523521
28.63009758772927
28.65427333541066
28.70274371565335
28.55717898169586
28.60580649009567
28.60571810114993
28.53265736427102
27.84021012925274
27.84254380262816
27.87601824248533
27.83733757616205
27.82783744371649
28.8953054143263
28.82324780475519
28.84725830917297
28.8953215371395
28.33453021884229
28.40955426729936
28.38419753205812
28.33473124984839
28.1025542236183
28.02163484236581
28.0485575149399
28.10298622058579
28.72683662311455
28.79919152596251
28.7991520072005
28.72689456597044
28.5080485696338
28.43431776252456
28.4341675683044
28.50816827054269
27.90554621218233
27.99375683856983
27.99306280359274
27.90668545012782
27.84134885715259
27.84853203367644
28.59066523285778
28.69822100792941
28.61131047373559
28.67082134997463
28.95596759541307
28.67937928180812
28.95702069486494
28.77191383757963
28.67144962916775
28.86208279115244
27.95844481229087
28.26533597161085
28.57537340536723
28.58682329334059
28.39589815316261
28.28807850199811
28.58684415637458
28.38342990395417
28.57617626819814
27.9024791654709
27.94548856106943
28.21815605249379
28.191214788152
27.94721987656672
28.19990836773072
27.90158071409607
28.85971846384606
28.86044737294033
28.95567373117
28.86037837494291
28.83571504782999
28.95545893019322
28.76378379158411
28.66918823131152
28.76501712291056
28.64329256174648
28.76491397720019
28.66752940078189
28.7877378005002
28.37508204419802
28.24996545373441
28.28114129192422
28.37949665059084
28.37920523056104
28.27558567891973
28.39947897624503
28.47338742740045
28.57308523350173
28.59490437838169
28.47670729458128
28.57079355972544
28.47647172380378
28.44867287538772
27.96426637295877
27.85736693399116
27.98030499094986
27.88209531405386
27.96183896250296
27.8586228485758
27.98115745515292
28.07146047277794
28.19932345296363
28.18216471361222
28.08276346593355
28.17452300208116
28.08229018726791
28.04393512544521
27.96620258109429
27.88233604980813
27.82781990597734
27.98237713736571
27.85999510222637
27.98192243731832
27.99077643940518
28.93133872265489
28.93142434450353
28.93141050673896
28.94335006233139
28.8833353221697
28.83545816825894
28.88348049434076
28.82328885090228
28.88345879231388
28.83529720229334
28.89534414335669
28.29727370197002
28.23374127588704
28.24787398491612
28.29852468932004
28.24654393562284
28.29839932680962
28.30985384618518
28.34751706859615
28.39817367422341
28.40974838056759
28.34858326936207
28.39735650479373
28.34847055265967
28.33497863860185
28.14321051709281
28.20808303030828
28.19683472151539
28.14535577275012
28.1952348939963
28.14514788650013
28.13001875962807
28.09030764286399
28.0393407339809
28.02247423261146
28.09296687038795
28.03627401744843
28.09272108034207
28.10356538092624
28.69073178500501
28.63019340528764
28.64268831460243
28.69108246599043
28.69104150320299
28.64231855834158
28.70281585446354
28.73901756437397
28.78740362467454
28.79923719065749
28.73930542144183
28.78719936475181
28.7392709088394
28.72696095689164
28.54501008090158
28.60590965512391
28.59419290853359
28.54558972686978
28.59375449082474
28.5455229043946
28.53278961711031
28.49605526356303
28.44754918070822
28.43449794778386
28.49673062692896
28.44685098040486
28.49665582649977
28.50831037210741
27.85854709484899
27.83961987249836
27.95933412230218
27.8918534600039
27.85644592027352
27.85221136287857
27.86319698271526
27.87245971476774
27.87193193082798
27.85056547623163
27.92331305511162
27.98488113699329
27.9947301053317
27.92957219114649
27.98078371054397
27.92905954190627
27.90832734413316
27.84851443322868
27.86070955144607
27.84442345149611
27.86307908403494
27.8516957231091
27.86718346031757
27.86501768952907
27.85528671204138
28.96733211065936
28.96732874346533
28.91932385334109
28.94332735252857
28.94332463345648
28.2333508888518
28.25892810499708
28.25888945250519
28.30955182833009
28.28432160570498
28.28428561262533
28.20765554607441
28.18183405671302
28.18178579190568
28.12944438258797
28.15577551503643
28.15572341751813
28.63008388391031
28.65434831997664
28.65433541292238
28.70273283845397
28.67856296165627
28.67855136286607
28.60579144973573
28.58147228334284
28.58145634667373
28.53263896356982
28.55709031347505
28.55707292344808
27.83573241730926
27.80544075438486
27.87580750178692
27.84407169913825
27.84374918725637
28.82324194606731
28.84728589102182
28.84728067679717
28.89531810588852
28.87130982131345
28.87130587406103
28.40952836353116
28.38470718221882
28.38467968570622
28.33469980748444
28.3597686884068
28.35973914493295
28.02154914865808
28.04909599449289
28.04902064479331
28.10292448999389
28.07619655751547
28.07612786372381
28.79918442622848
28.77511591074526
28.77510817069883
28.72688492032161
28.75101737811462
28.75100839546286
28.43429364718595
28.4590037831533
28.45898101633853
28.50814835534883
28.48361901538456
28.4835979346702
27.99366179293456
27.96537979020076
27.96526767412605
27.90652057348193
27.93640649650786
27.93627738978312
28.83525642381448
28.83482419655948
28.78714567056538
28.68981458465182
28.64222204347901
28.78658625419797
28.39726647090095
28.29465078607673
28.39528747561644
28.2464879319777
28.44673354987225
28.59250560531991
28.49442988736748
28.59365918629605
28.03646543594719
28.19184117964745
28.19527401417274
28.0307326783487
28.88330958241356
28.83518591370528
28.83541328613668
28.88337940108993
28.88342841696668
28.83525477644688
28.88326165755072
28.9312925947146
28.93126536479251
28.88326003583793
28.83511744359008
28.83518679609909
28.88321325724313
28.9313228597156
28.93136257220613
28.93138808996986
28.93129430294173
28.34727274845458
28.39681681104543
28.34789128989808
28.39799798991524
28.34689681285412
28.39714536267562
28.34824951777182
28.29646860221185
28.24509872774243
28.24559769516149
28.29603646380057
28.3468273055725
28.39643252324648
28.34645007285723
28.39676245004187
28.29699708464262
28.29776845361729
28.24572125135631
28.24758252105349
28.24621923232506
28.29656698617316
28.29817388006274
28.08974571934336
28.03441295823025
28.09151042491689
28.03869623518564
28.08888647099701
28.03552646438469
28.09229029321174
28.14185207515152
28.1935278434706
28.19410995523987
28.14115683450625
28.08862422704725
28.03296859422746
28.08776275819806
28.03410545214818
28.14275158312606
28.14408615075255
28.19427823005473
28.19653653384309
28.1948595125692
28.14205426896383
28.1447390414512
28.73894335751946
28.78705027201805
28.73909301693836
28.78735472258106
28.78714166166489
28.73882910506688
28.73920186277426
28.69049955404275
28.64187738994488
28.69036114603138
28.64204107515096
28.73882773680416
28.78695815401389
28.78705007397545
28.73871298616033
28.69064309415068
28.69083269011859
28.64204884285961
28.64259005487653
28.69050489848093
28.6909664713577
28.64221229695445
28.49589326835427
28.44637529926658
28.49627781070565
28.44737831580582
28.44666369398048
28.4956412090444
28.49651914090708
28.54462878715812
28.593236998908
28.5934277163715
28.54440843638724
28.49561256240581
28.44604915869535
28.44633829213996
28.49535982950917
28.54486716631273
28.54518043558393
28.5934416736181
28.5940889783257
28.59363211192363
28.54464715724628
28.5453915402839
27.92190913345137
27.97828536327807
27.92642230186628
27.98417920780025
27.97978377539492
27.91982849750749
27.92798013103495
27.9190341049375
27.97622103630369
27.97782660886633
27.91668128888094
27.91434726181011
27.97638907129431
27.97955039261638
27.92460408253338
27.92243786841984
27.97407597565755
27.91728193922119
27.90597460490216
27.96447333000745
27.90048359274075
27.96851287861453
27.91007277525411
27.97415905989008
27.97159920500462
27.91372397149325
27.91105516235874
27.97745817174734
27.91738824470622
27.96782067451307
27.90680124578851
27.92019167720368
27.97131019089417
28.95701934652543
27.88273710101346
28.17878805089699
28.57133927296421
28.37657121385326
27.96275059943291
27.96361878107646
28.38887903855772
28.66785871917094
28.85981625601512
28.01877380865296
28.19027233586897
28.18370941433331
28.02819740567323
27.8304221303714
27.94650103188875
27.85270392408493
27.82722222827214
27.80381936098724
27.85858248332089
27.95130171473059
27.85246271817628
27.94341547221991
28.95855588589888
28.49972789773929
28.35355325888324
28.69919332296839
28.04911066428598
28.26772892307829
27.90545800360868
28.21864817489482
27.94847564687705
28.09292587903306
27.9572803276957
27.85674305425408
27.97964623130886
27.884428171858
27.85786654031021
27.97961756906659
27.9592276383454
27.89148342477714
27.94794147036276
27.90768491033143
27.96570850728528
27.90927980902381
27.88807640047759
27.95312154505381
27.8359355803579
27.85666870906817
27.883431516389
27.95282020174335
27.8339457848266
27.85627652768526
27.85598320363729
27.83396457235313
27.79785014314172
27.83365532509683
27.79941656301669
27.80143732555674
27.91271227702095
27.88078292025873
27.7978934582882
27.82584359313615
27.7982287574702
27.85486591944478
27.89267669778613
27.88809470592571
27.85361250714018
27.88196164794477
27.88560969510243
28.47825974187139
28.39590233851629
28.58689746680706
28.28550727818977
28.83346850432832
28.13059069672474
28.18701481309829
28.13331830366944
28.18477733873729
28.06133565859808
28.07897786973776
28.17727395645705
28.16871852530159
28.1656134383241
28.07788813915085
28.06448285358496
28.29346630515487
28.39437537299376
28.23639522475166
28.39055205765181
28.43936799673597
28.58882998925947
28.5919741412058
28.4937275909417
28.44082957533776
28.58978221590862
28.22984888180725
28.28289662118688
28.28385473281357
28.3378046992676
28.38728820793678
28.33590666415967
28.38660533800333
28.33508921117566
28.63807811797138
28.78482050526749
28.83462700730572
28.83381506713201
28.68942826361108
28.78632813691214
28.63888930381771
28.78527530276186
28.00926845807259
28.07501351657987
28.02214113294568
28.0686195917634
28.01432704507888
28.07284538289482
28.07822800604348
28.17919979398717
28.12423513792795
28.12749906217937
28.18219022790257
28.0203894661359
28.01584066546473
28.0745980710521
28.0780196462956
28.13193558085895
28.18797491475069
28.18836267204969
28.13734286225087
28.1350983732532
28.13450883477365
28.18583797157404
28.00311651226068
28.06616529505262
28.01068246106956
28.07064602506103
28.12977142638045
28.18037409382419
28.12543926952832
28.12895279574811
28.18626245024831
28.13268508464643
28.1833420861232
28.02516050946546
28.0228077906268
28.0188053981622
28.0764772428622
28.08355972504004
28.08095011529378
28.07964739169525
28.76439647287521
28.76314993258989
28.6666080263747
28.76353072806647
28.66889519418377
28.76470568635711
28.66715994329553
28.95557120296235
28.85934640979403
28.95533631619865
28.85956990022064
28.95563220668985
28.86024976996267
28.95541058804041
28.47525926734152
28.56955276565596
28.47178066202243
28.4727411614006
28.57269915464405
28.57029515646037
28.47598444132936
28.2793989994046
28.37304090259735
28.27300867469688
28.37425911757248
28.28042792543756
28.37860830467038
28.27454205022623
28.17126563296054
28.06741923213094
28.08024454124113
28.06977218593503
28.18133954111703
28.17319192987336
28.08140380676199
28.83509177868729
28.88331416199802
28.8831955049931
28.88311053793544
28.83513771111053
28.83497109172254
28.88323187465954
28.93113978068261
28.93106673527791
28.93114158361121
28.9312130925673
28.8830109165935
28.88288104994896
28.83464625525835
28.8830062326086
28.83499667952803
28.83482354645702
28.88313152356785
28.93132359728149
28.9312547744699
28.93120383645325
28.93127261840034
28.78692679202899
28.7389447098995
28.73867528053895
28.73847924252199
28.78699333672733
28.73875300296883
28.78676946474862
28.64122765997965
28.68944722291678
28.64079731145002
28.68979402211854
28.64162465375541
28.69014854189226
28.64120803885404
28.69065313494596
28.64182929032931
28.69031914676395
28.69008283199342
28.64194943213919
28.69042436298474
28.6415495899419
28.73824596480742
28.78634612936487
28.73795247693909
28.73823994066353
28.78680891786914
28.73852471804576
28.78657703127751
28.3963753331183
28.34741502680195
28.34639255943877
28.34574721002607
28.39672651632285
28.39581128677252
28.34679545740814
28.24351299441575
28.29323804197182
28.24186618239878
28.2943413590177
28.24471184075492
28.29568511091518
28.24314750948129
28.34515090972626
28.34399684619438
28.39428376885218
28.34495608741291
28.39608009345007
28.39511992493125
28.34606061491981
28.29722586895344
28.24505440960352
28.29598943266429
28.29524970674539
28.24567346128335
28.29652304586301
28.24419878960446
28.44598822909044
28.49595359249883
28.49530248657949
28.49487056043976
28.44625592435853
28.49553780203049
28.44549388876802
28.54356218356553
28.59198230471902
28.54296003419309
28.54351473352068
28.59296564298101
28.59246151658418
28.54409603681791
28.44498868551397
28.44415793980087
28.49370447386705
28.49434186947526
28.4456878852519
28.4950386861752
28.44488886866343
28.54489730208841
28.59318577618302
28.54435177874255
28.5439751240817
28.59334435082497
28.59285994165415
28.54453158158864
28.03296894379556
28.09049667122704
28.03486677017602
28.08775051501484
28.03115117904263
28.08629949250859
28.08917876784807
28.18976481962067
28.13918117031734
28.13666184318577
28.13846696627053
28.19322432786731
28.1912696738729
28.14081908860028
28.14323662945516
28.1934997928948
28.14112631133788
28.13993501695537
28.19433553336006
28.1925003265618
28.14212319397895
28.0261521826861
28.08571182157813
28.08229931715954
28.0330386418009
28.02892725038783
28.08451154767169
28.08764241399113
28.77191749967146
28.66990645636857
28.8605988716763
28.47428750708684
28.56852548451677
28.47045349794192
28.46869505483296
28.57034078001246
28.47305974958394
28.56716207713847
28.27807836399772
28.37136540731494
28.2709250520256
28.27651558943254
28.26824194560949
28.36916143629543
28.37513880942581
28.76397698375137
28.76262202352039
28.66584382189959
28.66709219416616
28.66482998328368
28.76192216392855
28.76343672826124
28.9554884992116
28.8590364789847
28.95523367075055
28.85862588290454
28.95538202587027
28.85949530445058
28.95509811264613
28.83322137027062
28.88205383352766
28.88187502297189
28.93056812722968
28.93046695226991
28.24215307202411
28.29193085534795
28.24034619491937
28.24049079644899
28.23853365117812
28.29037679817162
28.29203168108894
28.34411269098698
28.34286274174851
28.39329601134088
28.34151723717881
28.39327882269862
28.39212795243184
28.34285114217553
28.23388595592007
28.2386484790028
28.28846886103588
28.28639911548838
28.23641280077917
28.28855868937638
28.29042160983354
28.33972058350868
28.38916302964509
28.33808764920589
28.33994686041392
28.39203978377122
28.39076684854841
28.34143814864663
28.43809043367742
28.48953534754099
28.48844769125415
28.53929939243061
28.58807350827727
28.53841370826209
28.54295032012559
28.59141862789451
28.5423074380126
28.54154004609408
28.59134291044476
28.54221586572884
28.59075735025676
28.44418831105073
28.44329610845243
28.49295332702608
28.49206907219452
28.44322233895181
28.49288891647196
28.44227870041525
28.43970727924559
28.49104273086978
28.44213686589332
28.49080889593349
28.49193893176041
28.44109632613796
28.48984182364052
28.5406514363245
28.59062715625583
28.5404027231937
28.58910161606897
28.5413899342138
28.53961381984635
28.58999217344319
28.63746278161392
28.68715948159727
28.68664054206903
28.7360459128432
28.78448636317951
28.73563362314577
28.93105679038352
28.93097910227579
28.93087661032416
28.93095678281363
28.88287040971892
28.88273402949872
28.83443840457611
28.88256248967334
28.83439144297627
28.8341953499794
28.88270592536878
28.88236477059398
28.83412770401836
28.8335918769036
28.88230045195341
28.88213656249007
28.83391561228246
28.88251807944642
28.93075885064017
28.93071336864263
28.93062257671464
28.9308459843763
28.64077255759909
28.68903982116852
28.64031491506354
28.68856306878783
28.64022831284531
28.63974927415712
28.68897143964867
28.73792660558908
28.78607503320805
28.73761524873207
28.73722055953033
28.78602413302529
28.73754540431204
28.78575832320451
28.68801261037735
28.63961654425981
28.63833672916871
28.68784476431112
28.6390960807676
28.68845301302354
28.68737440622604
28.73676567205592
28.78567857699845
28.7366102360635
28.78497081809265
28.73711743397675
28.73623840367465
28.78539312895912
28.96731549791046
28.96731694810089
28.94331862679412
28.91932079758645
28.91931824134521
28.94332086227569
28.25874820165351
28.2332353926948
28.23319651020524
28.25878458350377
28.28415622798594
28.30946468759607
28.3094329259355
28.28419003682922
28.18159923845462
28.20752768477287
28.20748580852999
28.18164427053821
28.15551683468551
28.12926842807646
28.12921559628172
28.15556559747044
28.65429696063163
28.63005472170056
28.6300417218523
28.65430918549466
28.67851601920753
28.70271124288659
28.70270092729485
28.67852704513013
28.58140658105521
28.60576002082489
28.60574577140513
28.58142168922097
28.55701920430999
28.53259806789927
28.53258065460615
28.5570356645768
27.84258031794536
27.87514463359708
27.87494244229494
27.84293010902245
28.84726756271576
28.82323084800783
28.82322515057655
28.8472726554255
28.87129575496699
28.89531466660776
28.89531117840023
28.87129977192913
28.38458658455518
28.40946688382171
28.40944239854058
28.38461251299814
28.35963835906481
28.33462003158146
28.33459045085381
28.3596662368247
28.04869614120345
28.02125872990338
28.02118164418243
28.04876536103811
28.0758414879519
28.10272580059473
28.1026683498469
28.07590446584981
28.77508513694193
28.79917152015318
28.79916473548922
28.77509254835298
28.75098264269612
28.72686506892225
28.72685588643352
28.75099116642738
28.45890753034351
28.43423686434688
28.43421410073063
28.45892905120376
28.48352979047574
28.50810428664811
28.50808543740665
28.48354972694884
27.96477907377823
27.99332359802589
27.99323778014911
27.96487777926323
27.93569927002163
27.90597910329962
27.90583289593326
27.93581479328519
27.72028651947312
27.75757791810518
27.74236107401667
27.80249175222032
27.77812950710236
27.82170803855399
27.77763177852813
27.82716750742982
27.94001349311853
27.90415384335664
27.83405352161688
27.86340832033185
27.77812632040169
27.81045170336689
27.77849671595026
27.80779057765123
27.87717108196559
27.84610791058732
27.83785806198991
27.88520154991294
27.87505979830833
27.83426000182603
27.86375347387803
27.83355908778213
27.67235746067667
27.63631632628332
28.49261505020113
27.60702760105329
27.71549212170977
27.69308987372507
27.65854728327373
27.68210237304741
27.73435876605111
27.69864535528984
27.67182454382898
27.63006597336676
27.65452434726737
27.78329963084499
27.83308721603118
27.79423264193584
27.82603653085237
28.49338612762808
28.2912684992672
28.23956289944663
28.2376778109878
28.28965767411165
28.59117616815708
28.54202290094276
28.54123825003803
28.59050050621633
28.93094589901727
28.9308417351536
28.68887099268787
28.64011295970347
28.68838477606094
28.63953598113346
28.93042333867619
28.83311518973677
28.88180012356309
28.23286463794254
28.28551139545483
28.23545461628676
28.28775740749568
28.34231056799625
28.39282519352903
28.34092220923527
28.39162272645611
28.3885548517891
28.33736108771597
28.33928879569226
28.39021272402933
28.58774715988006
28.53802644581892
28.43753162036828
28.48797926770629
28.44290071800958
28.49170885969837
28.44185660172394
28.54032507268951
28.5888038551483
28.53926206811136
28.58971548034885
28.43920622116997
28.49065195755147
28.44063590919303
28.48941832856879
28.63719356403696
28.68641664411602
28.78434356209661
28.73545390204283
28.88267722726775
28.8343577274663
28.88250253465766
28.8341104365154
28.93072142622299
28.93058269998449
28.88230062804061
28.83349464341176
28.8820677998348
28.83382456123459
28.73747905980286
28.78596672755469
28.73707707767586
28.7856440749504
28.68782133911144
28.63809074939012
28.6388666398175
28.68716929329331
28.73661174792091
28.78483979394253
28.73607383182369
28.78527080679154
28.93103525010119
28.9311111979518
28.68928708003172
28.64060614770744
28.68964005718504
28.64102423902684
28.29262409614817
28.24114482637197
28.29375939147522
28.24246495852614
28.59175302715794
28.54269172096203
28.5432574788853
28.59224152777459
28.18888962910295
28.1355973127573
28.13747637757618
28.19044607254353
28.93122591860099
28.93117451400582
28.88282708033494
28.83456973389128
28.88295438354822
28.83474985252152
28.83502235894446
28.88314676546356
28.88306054181236
28.83490007232924
28.64165598217975
28.69017391610731
28.68993426161912
28.64137244083671
28.73782330893006
28.7862432584329
28.73811555967073
28.78647809391446
28.7868335696915
28.73855783833873
28.73835924876208
28.7866739845022
28.24442218469326
28.29545026360171
28.2946946709416
28.24354867232237
28.34348287651025
28.39384360986696
28.34446744914434
28.3947008093939
28.39598525621822
28.34593874383593
28.34528059057368
28.3954102544395
28.44378717721261
28.49403743187877
28.44453477836735
28.59297882816387
28.54411017508867
28.5437277603227
28.59264804740632
28.44565751606912
28.49501746931966
28.49457818871557
28.44515453804488
28.19273849860089
28.1402168139321
28.13899894522632
28.19171731593641
28.0241271925875
28.02716367636715
28.0808886427202
28.08323150214763
28.03146952831329
28.08660570511265
28.02955664033599
28.08510942716123
27.58238695983145
27.64870762763776
27.63107985903097
27.60596643486802
28.01576117845451
28.18092852505564
27.96076075209287
27.85793772392191
28.23391306366157
27.98063572319548
28.04609011922559
28.05855667833826
28.17587255981768
28.16206854839504
28.07737045306243
27.95708427246509
27.88757152613555
27.8615647001735
27.98072601232038
28.00360738157853
28.07179930290525
28.06359954475493
27.9435047442965
27.90748686579083
27.8868854049531
27.80809143117683
27.9704783140274
28.0052235099672
27.94083456197628
27.90861947363482
27.93689722996749
27.90720071230714
27.85333917265774
27.87997412988934
28.27481797513974
28.26489905723108
28.36632665427541
28.37347051591441
28.17587123129589
28.11945843177072
28.12668861225537
28.17686161766654
28.12127507707914
28.22643289108234
28.27981476805557
28.23090154780095
28.28077734522688
28.28628769602091
28.33328300774592
28.38683962969577
28.33543192070834
28.38504747919448
28.33241130629431
28.38428286428129
28.46641457914674
28.56911557999141
28.47157948327279
28.56538849132936
28.8580943312459
28.95524974046763
28.85909599964959
28.9549231491617
28.66614369580999
28.66351268721733
28.7610146776282
28.76276563650912
28.88157295980447
28.83305600054098
28.83279210355869
28.8817677585032
28.93028673822666
28.93039344731646
28.43758392184683
28.43616723436763
28.4867993558072
28.48800218364678
28.53700067414708
28.58769659522713
28.53796668919803
28.5868694070731
28.68578694785403
28.63710675076272
28.63644207611301
28.68635143401542
28.73493100488022
28.78428823866742
28.78392531130461
28.73537373116649
27.73519608270678
27.79045129836839
27.83341617222741
27.77148228770647
28.001364447118
27.96126527630797
27.89166148313124
27.93004042056439
27.88948191468682
27.91869656054949
27.86273923718588
27.83554361924702
27.78051459488531
27.72479785951363
27.69835358371577
28.9302395728809
28.8814913885162
28.83267706544516
28.53657805881946
28.58651395625174
28.43554676046372
28.48628384234445
28.68554365713548
28.63614999571282
28.73473624423143
28.7837700744157
27.67841857741383
27.67586802881596
27.72602913522823
28.74442697602898
28.74375469895765
28.39877740750966
28.91865055829353
28.5805278924513
28.91872516551229
28.58077101194496
28.95742015602388
28.77395003746541
28.69017839283392
28.95740956369582
28.68215875050525
28.95849300070352
28.68990227316676
28.86333032028335
28.9566514573118
28.86448690311048
28.95702638711815
28.86448206479326
28.86334699894322
28.95664585999041
28.39598216535103
28.40184581222727
28.30960729260289
28.30247316862102
28.40186838774529
28.30246062799622
28.39601274414038
28.11619850544056
28.12605959649065
28.21765259859849
28.20910376425972
28.12619284142148
28.20912437797623
28.11612410391456
27.86142918545807
27.86914439472207
27.79460521310363
27.81259048647435
27.79792228829044
27.85858374185703
27.87091077511958
28.60093974411462
28.31686787236086
28.33455003667439
28.31630667602303
28.59048871931652
28.33382388466616
28.60056861672998
28.95969359588721
28.95885542903558
28.6924649851047
28.9596520312978
28.69801911179035
28.95881658757646
28.69218025628927
28.35143491622651
28.6038827369858
28.33942449833701
28.61099331551088
28.35085986624538
28.33871965093879
28.603504492896
28.67352974734118
28.76786211489762
28.7660050292608
28.67113347768094
28.76622917745109
28.76800243101608
28.67371886015051
28.86127379642646
28.95595249164417
28.86122644898274
28.8622288059731
28.95629271312959
28.86225979839925
28.95628256925399
28.76997711850295
28.77193717668057
28.67937330504032
28.67660087874893
28.77193061740299
28.67656695145289
28.77000346847426
28.86446723017491
28.86325646236756
28.95662064099564
28.86329918524986
28.95702358326871
28.86447448290067
28.9566352919864
28.67936699160615
28.67642137274438
28.76986152472869
28.76992813803973
28.67936656857588
28.77192106350659
28.67650456631925
28.67134414833497
28.76645718721436
28.76638081244169
28.76809962143764
28.67391847915584
28.67385043905933
28.76814982956184
28.86099874394794
28.95623371791838
28.95587723317938
28.95592219767586
28.86113396194127
28.86216902196255
28.95626268528667
27.98491071635358
28.22625464752031
28.24640500581103
28.22547927520055
27.95677094987557
28.24553700625162
27.98358968974995
28.09354898923512
27.99187703892856
28.25188252991541
28.26468287276362
28.09328200428401
28.25105536611591
27.99068098454905
28.57905141409644
28.47959275116648
28.48440856155552
28.57577100258608
28.48006885336801
28.48466239218958
28.57928040963461
28.48955025904396
28.49429529577407
28.58682132335737
28.58312783351028
28.49430222275872
28.58308944956771
28.48958832769363
28.30991535957334
28.40203834957415
28.30249158877833
28.39593646700125
28.30971759319986
28.40192611871752
28.30245653927827
28.28786238211399
28.38453946843139
28.38434609313513
28.39005694532837
28.29521764078677
28.29511771031164
28.39016027706453
28.58293225254434
28.48940925431064
28.49438067350108
28.48948521701
28.58682459611502
28.49432573580537
28.58302051847335
28.38961257728788
28.29472784580129
28.2868800953666
28.28745003027777
28.38396889602462
28.38986655586173
28.29494253652254
28.57604081876799
28.48056096773913
28.48039564379417
28.48484513922636
28.57952568268461
28.57944166770798
28.48494176749742
27.91965887416546
28.01182161850431
27.99699820161963
27.90189826125145
27.99702939245009
28.01143557109728
27.9188449016534
28.0240092766526
28.03527306488962
27.94576242730447
27.93271038845896
27.9329678461093
28.03547066168016
28.0238557634676
28.20934950554922
28.12695654149365
28.11671914441718
28.11638049692171
28.21783840333147
28.12648072607054
28.20919292373837
28.1909891961357
28.09413223198392
28.09392813798667
28.10538350335603
28.20022477768005
28.20014537158162
28.10541417696228
27.93440741722012
28.03655817183335
28.02493978993194
28.02435252224939
27.94632910041608
27.93351626480253
28.03588755909579
28.19003722879506
28.10544783026413
28.09319660835407
28.19057511409967
28.09358274562506
28.10537112211093
28.20002253477577
27.90164758432884
27.9972920537583
27.99717312678914
28.01125526315008
27.91817795777026
27.91838004724525
28.01119493101037
28.86446525321477
28.86320675450312
28.95660341640371
28.86315733635358
28.95702197200386
28.86447590936628
28.95658602019679
27.97199483816356
27.91454941721359
27.9017672974936
27.89655151034814
27.96868860855832
27.91154583224576
27.95857096861424
28.86576020042059
28.77410856820319
28.69037427602238
28.95751321965206
28.68307612974311
28.95868946298957
28.69135882607422
28.60120178900374
28.40865153947899
28.33505330991817
28.31982558213813
28.59183631704265
28.33747134392795
28.60250687749978
28.61256500090353
28.61153338901201
28.35181377071283
28.60414548821248
28.33990619352619
28.3421635014322
28.60541171381067
28.69839182692552
28.95984672433555
28.95973420214314
28.95888248535044
28.6926636828225
28.95901546284258
28.69362852704035
27.98580159720714
28.13799292993122
28.24700237590703
28.23007522580871
27.96531998483588
28.24983304741627
27.98985046673025
28.26576636876254
28.09515858496853
28.09689170029852
27.99267882741265
28.25244471180059
28.25505198497345
27.99628127179008
27.99808373359053
27.90358667167705
27.92093690870856
28.01253227519316
27.99726736054647
28.01371306540254
27.92280990253391
28.20965337338705