/*--------------------------------*- C++ -*----------------------------------*\
  =========                 |
  \\      /  F ield         | OpenFOAM: The Open Source CFD Toolbox
   \\    /   O peration     | Website:  https://openfoam.org
    \\  /    A nd           | Version:  7
     \\/     M anipulation  |
\*---------------------------------------------------------------------------*/
FoamFile
{
    version     2.0;
    format      ascii;
    class       surfaceScalarField;
    location    "0";
    object      phi;
}
// * * * * * * * * * * * * * * * * * * * * * * * * * * * * * * * * * * * * * //

dimensions      [0 3 -1 0 0 0 0];

internalField   nonuniform List<scalar> 
37064
(
0.02932191095178268
0.0008581830058104242
-0.000114365413282498
-0.02943443324716979
7.751860339637437e-05
-0.0007088139005357214
-2.122142524894571e-06
-2.886453763748406e-05
3.124001352480615e-05
0.007712495807076183
1.524401716958939e-06
-3.500748227827385e-05
3.509748135626298e-05
0.007949332796304243
3.455312305621764e-08
0.007884873481201315
-0.007912059080502822
-4.755227059394709e-06
0.0006157049487789764
-0.0005837641224194066
0.00784198007335365
-7.555042313253761e-06
0.0007317036380868071
-0.000681255187958175
0.008273451920647903
-0.0002240542404446584
4.268843329429802e-05
-0.008236634294631029
0.000176061079973467
-3.151289884060219e-05
-2.732058758867948e-05
0.008166308986909307
1.494067142092431e-06
1.072330003257065e-05
1.043996624148667e-05
0.008200435660586321
-0.0002065609218499555
9.410584506972574e-06
-0.00816694259815688
4.690416381531544e-05
3.642642476185513e-05
3.50860869948004e-05
4.524059933954153e-05
1.77423157028098e-05
0.00821225043457913
-0.008200172471573829
8.326784187174902e-05
-1.309032499685381e-05
-9.999779558380744e-05
-0.0002972916089030835
5.584204387151745e-05
0.008321102708073198
0.0002350911696631997
-4.129239211002771e-05
0.008447128068576081
-0.0005855651419208391
2.065946560570335e-05
-0.008371977914466498
0.000124591177360474
0.0001216127751128228
0.0001212762615949511
0.0001222753081386655
-0.0005091241103664884
8.113486696820771e-05
-0.008378722840712163
0.008444394776155757
0.0004230592709658148
-6.074196301278808e-05
-0.0002676866904261961
1.232179414142212e-05
0.008247027471578494
4.744462470471819e-05
5.538668168180003e-05
5.732548920373546e-05
4.861628967412011e-05
-0.001734793779192913
0.002125946861593424
-0.008366133023860304
5.293749577157487e-06
-4.025727852389623e-05
0.008009943470406154
-0.0007664474050986166
2.204772729204053e-05
0.008518225778383863
0.0001697419150287564
0.0001658398887894419
0.0001682658683869181
0.0001694542957683492
8.967842859400626e-05
-0.008511059635632078
0.0008062119403914336
0.00855828430689522
-7.123525260289406e-05
-0.0008718797876459473
-0.001639562356511396
8.413335964757434e-06
-0.008476649640018163
0.0004678191857482507
0.000485210236497982
0.0004880366658737171
0.0004664120893331685
0.008200320483114323
0.002068378889959356
-1.588047554237806e-05
3.425664894412146e-06
1.195566191789863e-05
-2.521561337529232e-06
-0.002065358179890919
0.002034612179086059
-2.41140472189463e-05
7.353114834122847e-07
-0.002030312680443143
8.151268292372744e-06
2.297580789147714e-06
1.280293641858619e-06
7.350094370477296e-06
-0.0021330973579643
-5.955101493632499e-05
1.553849571352234e-05
3.810870706999038e-05
0.002150271526369084
-1.127035625189871e-05
0.0021733708399012
-8.740550742902562e-05
4.656803953575703e-06
-0.002151407485612314
1.747853557076059e-05
1.394470883339218e-05
1.301936201093953e-05
1.63427427724111e-05
0.00220600088925982
-8.638043509076598e-05
2.206344951888032e-05
-0.002187225273900135
6.197466822125494e-05
-1.643329800948903e-05
-0.002102630209423298
-5.40346071389324e-05
3.213639325198396e-06
0.002116559919686505
6.918648749077561e-06
1.051088566194494e-05
1.159396899143154e-05
7.867754147831448e-06
0.002354184224523007
-0.0002031707782166754
3.456656206430842e-05
0.0001586634561625063
-0.002317496917777702
-2.674654675440221e-05
-0.000105450819353805
4.990504467546646e-06
0.002200282273020921
1.630670634220299e-05
1.943529578686849e-05
2.059530826594705e-05
1.721157135975115e-05
-0.0001182295717417469
2.481567781350463e-05
0.002239816719941139
7.776046073747638e-05
-1.81623975053699e-05
0.002316780599613958
-0.0001996453959704092
7.217695297786638e-06
-0.002270964136986975
3.803969227364113e-05
3.622225285371936e-05
3.556137374553846e-05
3.678791917241224e-05
-2.269901838480675e-05
4.490411103175757e-06
1.347640788823578e-05
0.002076340422324709
-3.22933298846434e-06
0.002063605743138193
-2.622943680283578e-05
1.710591086351544e-06
-0.002056411992571585
6.82827784282707e-06
2.831329493406504e-06
1.867942350821495e-06
5.797545462900581e-06
0.002093591993799851
-2.417978119868185e-05
7.902199919733667e-06
-0.002088691648124215
1.720004428523177e-05
-5.822808682274953e-06
-2.306173016273704e-05
9.344764938582448e-07
0.002041952447526046
6.354728354280345e-07
5.780274385864062e-06
6.748392884635927e-06
1.622845110272025e-06
-4.475060895009042e-05
1.368145744298866e-05
3.156220996434352e-05
-0.002123495674607977
-1.009474182802718e-05
-3.020777403907989e-05
1.934043341870242e-06
0.002071775740777552
2.618188736594869e-06
6.43417258074585e-06
7.471971161000546e-06
3.579400567690834e-06
-3.336468877921349e-05
9.223046356647707e-06
0.00210370629801898
2.070364955543438e-05
-6.676311366873533e-06
-4.605909728683113e-05
2.930951758082412e-06
-0.002091013161864657
1.026198428478466e-05
6.50460186797636e-06
5.552288213933734e-06
9.19222359183552e-06
3.764850263967358e-05
-0.0003100047718881686
0.0002282413981717913
0.002427349485680086
-2.905039010135354e-05
-0.0006169268816364119
-0.002485302484890619
0.0007532638397091584
-3.725849614405745e-05
0.00234669643648616
3.952758647626996e-05
-0.0002601000559598856
7.378341978342054e-06
0.002371081321669318
4.955430889008009e-05
4.882307427338901e-05
5.010409329285579e-05
4.993951545811411e-05
-0.0003359034940864369
-0.00236394045820256
0.0002472246825495871
5.202730694430696e-05
0.002438240465420068
-0.0004146143563067144
-0.002396217550836592
-7.598105400509086e-05
0.002465489173660579
0.0003435264244897969
7.779736299810373e-05
5.513832807149148e-05
-4.094107012945062e-07
0.000444820618607525
-2.290345400483892e-06
-0.0004972591905771402
0.0005073688079790629
4.882715745396204e-08
-0.0005058809397738918
7.982865395183857e-07
-2.334981902034566e-06
-0.000478960529930852
-1.029516031968551e-06
0.000481165388737941
1.948545642570159e-06
-3.123888417734709e-06
0.0005499567082435103
-7.728437606484091e-06
7.346434962567236e-07
-0.0005466498906624005
3.686976529117302e-06
-1.179490653538869e-06
2.189068250772484e-06
0.0004864201562308712
-3.683700995125015e-06
-0.0004837460328327918
-0.0005382430674082696
-6.007009972718145e-06
5.913108850530019e-07
0.0005408254937859116
2.8332727100099e-06
6.340955376773169e-05
-2.829426086464601e-06
0.0004901788022849266
-6.920083039006699e-06
-0.0005438388469274535
-8.639811819158424e-06
7.766996002915747e-07
0.0005537327771296164
4.087043327305641e-06
-1.356242447697466e-06
-0.0004895253284651343
2.471987404400048e-06
0.000492824787522676
-4.415204014750026e-06
0.0005676191126555659
-1.171238568184296e-05
9.894895733910272e-07
-0.0005624900145704414
5.593798023640517e-06
-0.0004597615194507562
-3.310154281887076e-07
0.0004602769182796452
8.449813227665464e-07
-1.029364723608196e-06
0.0005198617920931504
-2.077942595648767e-06
2.488617160530836e-07
-0.0005190222650842688
9.895538702343706e-07
-3.934402872571242e-07
-0.0004610193044802731
9.430688331272415e-07
0.0004616418211341191
-1.172145199654111e-06
-0.0005166659323463671
-1.750291163089649e-06
1.907373429812639e-07
0.0005174350582673813
7.904278992156559e-07
5.730805168388788e-05
-0.000508196537541503
-1.160034064327591e-06
0.0004551639672359516
-3.115447314232197e-06
-2.351816988835313e-06
2.646289218214333e-07
0.0005208565814120668
1.092398742882511e-06
-4.59455893687484e-07
-0.0004625022854286111
1.046314723102993e-06
0.0004632555487947284
-1.34012219523952e-06
0.0005241567350010271
-2.856094467833037e-06
3.321326989193484e-07
-0.0005229971007911495
1.364327559155329e-06
-4.889872329764725e-05
-0.00028583004894369
-0.0007697999427749948
6.518141612065949e-05
0.0007754515558126473
0.0002638957430833817
1.271640585360145e-05
-8.334654856662619e-05
0.0007256950274299309
4.590499059999607e-05
-9.238250948847059e-06
-0.0006917316243680662
-0.0006574578070431864
2.404912854763679e-06
0.0006846365152951904
2.876587471306814e-05
-5.834949581952683e-05
0.0002349248145186354
-0.0001568961152029111
-0.0006868842065799155
-0.002611703105959943
0.0007961879761772847
0.0007958175515625889
0.0008348179326664511
0.0007937351528169857
-0.0009565783375285452
8.593586623715564e-05
-0.002781144791602257
4.189864510307194e-05
0.000162851155724076
0.0007144801680403175
0.0007702778806031405
0.0009765177877462354
0.00117178771688092
-1.053868315137084e-07
-0.0004549508522628908
4.825483683592429e-07
0.0004557017226055706
-1.128031879962404e-06
0.0005136887737048497
-1.806910240360663e-06
1.108932513889943e-07
-0.0005126715690686887
6.788123529257961e-07
-1.608066355884824e-07
-0.0004565274325244035
5.747278069206012e-07
0.0004570744544794695
-9.609431264444661e-07
-3.135437600622423e-06
5.901962442181553e-08
0.0005094263356179606
1.018890330701238e-06
-9.743224037390841e-07
1.153984703002318e-06
-0.000476795442628034
-2.344749607163237e-06
-0.0005300506675760826
-4.339470662731076e-06
4.561509717645429e-07
0.0005318937830051072
2.040204261944532e-06
-5.583061968598051e-05
0.0005199711257869434
-9.713635955786538e-07
-0.0004629891997017741
-1.799428042243659e-07
-5.413147434871962e-06
5.610636991822137e-07
-0.000535973296461926
2.582312783985492e-06
-1.84921629542435e-06
-0.0005055259926785429
3.270808938950385e-06
0.0005108395385179153
-6.735138483151688e-06
0.0005970213691994221
-1.988488650701535e-05
1.394345425845237e-06
-0.0005880502292691348
9.519401151490154e-06
-2.205002466452836e-06
3.858008896702904e-06
0.0005240524730522448
-8.708420478198281e-06
-0.0005169970590043896
-1.333532780515543e-05
1.052080071780532e-06
0.0005735724313836916
6.329928999631696e-06
-3.071832156842041e-07
1.374693115366107e-07
-0.0004591190888945767
-4.727166565209668e-07
-1.671453920954179e-06
1.24241951964497e-07
0.0005145843410513359
6.51644616699064e-07
-2.159467168995815e-07
-0.0004576909271716076
6.637770360331821e-07
0.0004581049613132733
-8.618644605170204e-07
-1.54248060518111e-06
1.768566726688507e-07
-0.0005160128735684542
7.125651494168997e-07
-6.09535299448355e-07
-0.0004663175058516976
1.282378000285121e-06
0.0004673955265707167
-1.750863420125689e-06
-3.910612866568104e-06
4.329236872958362e-07
-0.0005284394932072047
1.866514804741484e-06
-7.514623025197211e-07
0.0004715964432320052
8.146208337180598e-07
-0.0004700267786174369
-1.632823146235537e-06
-3.190630622735758e-06
3.508756927395735e-07
0.0005255021842324742
1.494305693901158e-06
-3.924690470358272e-06
0.0005890077745878421
5.850353576390415e-06
-0.000569557182922947
-2.137625477030348e-05
-2.360589599468806e-05
1.483852018612731e-06
0.0006078862213954544
1.125719177367651e-05
-2.655094847595575e-06
-0.0005323428121677895
4.607899390262507e-06
0.0005422783564618621
-1.188834883664511e-05
-4.37143945471853e-05
2.125049918572789e-06
-0.0006370700235797295
2.120156115729943e-05
-0.0001500535479584486
-0.0005825677812243983
-0.002522034980895902
0.0007751871004621688
0.0007730775897998117
0.000787740652250332
0.0007617548523504904
-5.440343421178018e-05
-0.0004897813949442669
-0.00246108287596312
0.002855214157149003
0.0003381321761578952
0.007858427559728518
8.611379743762497e-06
-0.0003209719656656998
-1.314152681038933e-05
-0.007871057623154482
0.007497700675503062
-0.000126638804441347
-1.314330234626953e-05
-0.007517748178537491
0.00015048363858528
9.345971236085628e-06
-1.716101270322674e-05
0.007493665713722009
0.0001960368687360532
1.264986266365306e-05
-0.0001874907569231186
0.008189260287251348
-0.000253287526314156
-0.008166681412583483
-2.145485226431944e-05
2.810926341678342e-05
0.008119044664098147
1.040325638090928e-06
-3.145433366339169e-05
0.007941787185349386
-0.0002511399564793842
-0.007944944062676299
-1.393382679081481e-07
0.0002544361720733471
-2.801673013342447e-07
-3.716015804113781e-05
0.007954352075241851
3.789411832810063e-05
5.668303898444367e-08
-1.943485822925209e-06
-0.0001871999831641972
-0.00795211697937709
0.007948659129570223
0.0001919211054101915
6.802133832112198e-07
0.00814989001280373
6.953351325681571e-06
-0.008128796305575902
-0.0002346079804334712
0.008086639383814478
-0.0001156207141919712
0.0001106179846864908
-0.008082989865410785
-5.484426540595492e-06
6.837637642683389e-06
0.0009534798399096828
-0.007591092791103615
6.43350643678706e-05
-0.0008418880737747854
-8.849781367236138e-05
0.007503663774271711
-0.007427571963855019
-3.29063975130275e-05
2.524043682199881e-05
0.00740985316737271
0.0003481569387148423
-0.0003227721815406773
-0.0003338130450108258
0.008217536864030687
-2.721371571918888e-05
3.545857496810253e-05
-0.0003254325024040156
0.007936918829485964
-5.799470667445681e-07
0.0003308808052863883
-3.88781130164117e-06
-0.0005357215827723619
0.008005650132216567
2.644720100872788e-07
-0.008018174339511894
0.0005518691293620396
0.008280307963434153
1.210959727655253e-05
-0.00824953863649849
-0.0006284440661549939
-6.292323390977195e-06
-0.007943772624522918
0.0003488521515497906
0.007936083224772182
3.261747725429989e-06
-0.008248536032634609
-0.0005471579543024499
0.008277252137387024
-3.537503418748598e-05
4.469277333209024e-05
8.845756828701069e-06
0.008179188808220057
-0.0003058312427274837
-0.001459259382264913
-0.008060845739393188
4.53285949050602e-05
-8.024954606926347e-05
0.007820232293582674
-0.0009598033696453492
-0.007693808903139997
-2.100489332542868e-05
0.001087090798412352
0.007587526367697998
-3.928184947116982e-05
-0.0006960348617025935
-0.007867889180664788
0.000759277197534684
0.007817681099148542
2.624759515479868e-05
1.104888480876178e-05
0.008292595034455964
-0.0007897833609637715
-9.413630356558594e-05
0.001087301227606439
-0.007658059323031305
6.723141198252245e-05
0.007551142826898742
-0.008118206671184947
-0.0008183300651963349
0.0008627748125711568
0.008079917242695295
-2.296140744105513e-06
-3.859178139464208e-06
-9.044755489965906e-06
-0.008154654626486528
-0.001419618144517412
0.007943755169953898
-9.440144100846425e-05
-0.008194473017340442
0.00821195474044239
1.943455828618738e-05
1.786216692168416e-05
1.90584033372106e-05
1.092116815972559e-05
-1.860559574035016e-06
-1.197123797221913e-06
-1.725795320208726e-06
-1.453575660020304e-06
3.944781126326037e-06
0.00815495575746648
-0.0001030642949364649
3.037741487318143e-05
2.571383328141708e-05
2.422185508119091e-05
3.015963999802569e-05
0.008175999930150279
2.3633075795729e-05
2.91175758279162e-06
-2.831990920155428e-05
0.008176993638004965
8.569272440377079e-06
-0.0001000196402542422
0.002041320998695086
8.352172592995013e-07
-0.002038577077542683
-2.7693185643035e-05
6.01761614596691e-06
8.622991844876426e-06
3.703221950408066e-06
-7.662085170733173e-07
4.523532678125334e-07
-0.000129426815695919
0.008248358107973476
1.888222038180277e-05
2.274266540821862e-05
2.078569557034617e-05
1.861332516243345e-05
-2.31269034516382e-06
-2.975770023968638e-06
-2.611914297603684e-06
-2.79910211971443e-06
-0.008194975164726639
0.0001622446458429184
0.008229516875957996
2.061517333846635e-05
-0.0002079909459353621
6.609111508679025e-06
-0.0001566401793245582
2.802003156653749e-05
3.974311217207649e-05
4.075422545982534e-05
2.952685786681176e-05
0.002065830309957687
1.93832745501477e-06
-0.002059959258557415
-3.40388156690956e-05
1.445768990079435e-05
-0.0001552569209056847
0.008297953381900917
2.620564649561535e-05
2.534784648360023e-05
2.55059734800624e-05
2.69315191797924e-05
-4.19781872441319e-06
-3.45488646323448e-06
-4.052153501624437e-06
-3.816536305043688e-06
1.096839905588106e-06
0.002047515710438492
-3.035328182828474e-05
-0.0003685835144286046
0.008542661573272558
-0.00843996676286575
6.144785051512584e-05
5.865800991214051e-05
6.196045647006672e-05
5.801829976803606e-05
-7.628974124281756e-06
-8.988528785185373e-06
-8.214842261957539e-06
-8.914582411819567e-06
0.002163465591612609
5.074383645327765e-06
-0.002146047745470537
-0.0001098977372280737
-0.008400649524669224
0.0004977390687346156
0.008474879767220129
4.555344591670734e-05
-0.0005968632916156228
1.818664261549513e-05
-0.008304328847179639
-0.0004498016609730205
8.825643103453358e-05
9.22662590415878e-05
9.446304669597416e-05
8.898021427428311e-05
-0.008333222189133705
4.005521006956353e-05
-0.0004578794174917851
0.008674804002927252
8.216695432857878e-05
8.653449318456587e-05
8.104518248410245e-05
7.085088043215211e-05
-1.107828263910925e-05
-9.301495741419132e-06
-1.109302505140279e-05
-9.908503073986644e-06
-0.002101832264910352
3.67848691141147e-06
0.002115335248911194
-7.121607806429276e-05
-0.008360375268610302
-0.0002768867465992978
4.420043489777382e-05
4.544798411246177e-05
4.338135073805296e-05
4.639894993262555e-05
-7.152646398690286e-06
-6.082863151484234e-06
-7.051237668653418e-06
-6.59732910396327e-06
0.0002100861742212197
0.008276025999013659
2.703588596845775e-05
-0.0002713093891594326
2.242538742461562e-06
0.00207424032729223
-4.086033013218951e-05
1.529475237231628e-05
-0.0003467657397826883
7.290131427451754e-05
6.571371215480476e-05
6.473247934569092e-05
7.082210598597651e-05
3.281215202054449e-05
3.255960586443494e-05
3.368032101163071e-05
3.610471831748867e-05
-4.699080314899632e-06
-5.572103492888867e-06
-5.133666091113303e-06
-5.452348652641562e-06
3.362312527585534e-05
-0.0003524113096973576
3.302340456627625e-06
-0.00209209306922396
-5.910063345034211e-05
0.0001352644505799723
0.009021399866513477
-0.001494909546446642
-9.387718797373572e-05
0.0003488489300488451
0.0003903661775844079
0.0004022050384939008
-0.009045201222899512
-0.008914248197908195
-8.850117357140707e-05
0.0006825162093641242
0.0006682522634989068
6.141463334947557e-05
0.0006992310558696043
0.0006920029913576854
0.008325279079587038
0.001623223181661589
-4.286449132311749e-05
3.511481853600045e-05
-0.008537421476023309
-0.001444185056755718
0.002036513547232441
-0.008444904558841681
-6.506816012343325e-06
-0.001697185162050116
0.008117376739205795
0.0003924469196066553
0.0004729792202762253
0.0004532754586184197
0.000156199991506435
-0.009045276512114734
-6.840749074045742e-05
0.0006003559614817147
0.000612751767562114
0.0006529823515324442
0.0006586926879127253
0.008513036962313822
-3.446044260247064e-05
-0.008568034718295489
-0.001380183435829472
-0.008838601710585245
-0.0009746209804285189
0.009009322268784275
0.0001823434413081312
0.0001997842475054743
0.0001785834880042561
9.385998993771752e-05
-1.47475568899871e-05
-1.164278261808272e-05
-1.590372704348038e-05
-1.154745620808508e-05
5.439616557948909e-06
0.002186840427672955
-0.0001342652719871234
0.000687205178751431
0.00854313331792847
4.853749529691001e-05
-0.0007819484975032268
2.129983176796029e-05
0.0085521990943077
-0.001006191811686158
0.0002340116577304658
0.0002420379820758464
0.0002433394352617466
0.0002315295889125387
0.0001273197044638934
0.0001164610605685806
0.000126552135168101
8.384560954345196e-05
-1.087642816747711e-05
-1.323019634195998e-05
-1.134988166725224e-05
-1.354410429335096e-05
0.008570114129258734
4.625962087516069e-05
-0.001026561580927854
0.002266820106841179
6.688923438388773e-06
-0.002239775201734779
-0.0002333792245269495
0.00905495496582473
-0.001404758998070635
0.0003570132815313382
0.0003001598562956935
0.0003474713506961568
-1.014438106930417e-05
-1.415301286499752e-05
-8.152282759984249e-06
-1.695047074028741e-05
0.001958365569871293
-0.00848098292688308
-0.001662596527795306
0.008187120404705197
0.000619736932909197
5.618771453030382e-06
-0.002302551874196595
-0.0005577258931500638
0.002234922062984036
1.722739436372056e-05
-0.001308683604297332
0.0003525979045549035
0.0003310403669557233
0.0003333619811936424
0.0003500054114773468
0.000556539652382389
0.0006089110290701606
0.0005363457474041544
-1.030917597984876e-05
-5.760714297070764e-06
-1.374435689745332e-05
1.599925825394562e-06
0.008654404055737579
-0.001332860844015834
6.281002251330332e-06
0.002297527521881822
-0.0002970884732694344
-1.020953988268702e-05
0.002025977625986813
6.822242245681718e-07
-2.339730622485085e-06
1.351787211532608e-06
4.844816669648028e-06
1.304818076422264e-06
-5.924008544097212e-07
1.533507344234617e-07
-1.120380529128732e-07
1.258335796352388e-07
3.438025955103902e-07
3.502123170048089e-06
0.002031979216032645
3.749943881745273e-06
3.125086912335627e-06
2.681550591405432e-06
-1.184429552774823e-05
0.002038480324556999
7.305408174580866e-07
-1.118689223418902e-05
4.13708928879851e-07
1.660305643309045e-06
0.0005077658565961257
-1.867691065808917e-05
0.002035589822022485
1.103382574743892e-06
5.902433911595089e-06
-2.054019242184077e-06
3.128173667214752e-06
1.625034588135713e-06
-1.186691436348578e-07
-1.886328438738543e-07
-1.643479467609561e-07
-1.68640956995286e-07
-0.002040495137522007
1.65948550755415e-05
0.002045638246490349
1.577427793694633e-06
-2.25800803644703e-05
4.830302917279935e-07
3.04291575453831e-06
8.402221697297285e-06
8.941775647855211e-06
4.027352760879949e-06
-2.323076058264449e-05
0.0005121512520470361
1.221759070576159e-07
-0.0005111933921410168
-2.886946058727202e-06
8.886668864728094e-07
-2.109736025564234e-05
0.002044703696943907
1.6337303399514e-06
-2.266703887456224e-06
5.506439161494345e-06
9.983531313727148e-07
2.587488753667361e-06
-2.693168044708746e-07
-2.136134764803017e-07
-2.375974482358132e-07
-2.577996387735258e-07
-0.0005052270123420999
6.233652892183666e-08
0.0005076177109349743
-5.58847272752469e-06
0.002166288959031935
-5.031493872434031e-05
-0.002145439285161164
9.574997606639843e-06
9.970070563796953e-06
2.975195358671383e-06
6.971563558068414e-06
6.004061572094285e-06
-1.402386890213779e-06
-1.540534442384244e-06
-1.54642462720734e-06
-1.541277845336613e-06
0.0005483729676655978
8.313748818159182e-07
-0.0005453733945099903
-1.155938564942798e-05
5.983155405269878e-05
-0.00216186455958659
0.002183610394420769
9.808009600001329e-06
-8.672859454320736e-05
4.028358640285934e-06
-0.002132333416491125
-7.420136239544658e-05
1.053802055057617e-05
1.398535069745691e-05
1.510075946444404e-05
1.147480391073554e-05
0.002191059093760741
1.108328704247797e-05
4.226766269082417e-06
1.123141957628358e-05
7.288383828082425e-06
8.211118022848838e-06
-1.784207239204484e-06
-1.618467363122917e-06
-1.791692778028639e-06
-1.785188059821565e-06
-0.002142312884771716
7.6427361995682e-06
-7.348099113037219e-05
-0.0005369540815410111
6.714427581388334e-07
0.0005396840135904269
-9.408384786120539e-06
-0.002128164140931781
-4.234069526164261e-05
8.556812358185416e-06
1.959148088973646e-06
8.935229822798035e-06
4.96739631823933e-06
5.963702276515611e-06
-1.355798781463557e-06
-1.238412021357222e-06
-1.355378772316304e-06
-1.367148270677341e-06
3.623280057811519e-05
0.00212668841978013
-0.002112437711453857
6.119260564989802e-06
-5.338913015490882e-05
-0.000528917753397285
5.15989459012712e-07
0.0005309207646230681
-6.85847135292221e-06
3.711817846716651e-06
1.314440667240106e-05
9.460188000749687e-06
8.515988931619058e-06
1.204653727317347e-05
-6.265243555166145e-05
-0.002113336869310443
7.431096383061653e-06
8.120539414291632e-06
1.164745384464334e-06
5.165625769697923e-06
4.147240623877892e-06
-1.077941952551783e-06
-1.18011879312349e-06
-1.190720073598927e-06
-1.174937821071451e-06
7.717865724494057e-06
-6.197120816574637e-05
6.328390877041708e-07
-0.0005349287439076125
-8.071324164907351e-06
-0.002221718451235317
-8.930230557164314e-05
0.002259351947689845
1.459169494693933e-05
8.146354113159883e-06
1.507940332827121e-05
1.125251741266076e-05
1.199087064418638e-05
-2.418084956116648e-06
-2.157859400283305e-06
-2.438946199252745e-06
-2.377140770751305e-06
8.85606393664858e-07
0.0005522662645215149
-1.341871507764677e-05
7.277927929892985e-05
0.002211267870095964
9.398609356999515e-06
-0.0001048448598802012
5.805701842721005e-06
0.002231832268371011
2.460904219635693e-05
2.148284682072809e-05
2.061315051440246e-05
2.342183337598327e-05
-0.0001274825701064724
1.244281333517493e-05
1.290767822277543e-05
5.913621560941059e-06
9.848097678698535e-06
8.994923521173505e-06
-1.845506505529542e-06
-2.050387272629678e-06
-2.032427939492826e-06
-2.058890806262698e-06
0.002242449752347503
1.251844927675722e-05
-0.0001271969352868506
0.0005654190381561526
1.12253835561583e-06
-0.000560742103413153
-1.75118587862169e-05
0.002307959310948475
-0.0001132922593993898
1.650161091958387e-05
1.817331278867323e-05
1.141676331520129e-05
1.503076215616172e-05
1.450183750829643e-05
-2.494181743829398e-06
-2.838279639780098e-06
-2.741739427172682e-06
-2.865189748715093e-06
0.0001470759155234374
-0.002282823182457334
0.002327808612893459
1.627165274292827e-05
-0.0002011153034144224
0.0005931779175560827
1.584578753914752e-06
-0.0005851335038291679
-2.951387899516253e-05
6.099867405100783e-06
-0.0001586526627318106
2.672715451869156e-05
2.89743873752672e-05
3.019441876054644e-05
2.752496603696702e-05
0.002370779177449502
1.977563015761101e-05
1.632579510211921e-05
2.260649229759106e-05
1.932298589594163e-05
1.943290481451791e-05
-3.446305652665986e-06
-2.972611418957684e-06
-3.512165737130782e-06
-3.276676459664814e-06
1.133164030603664e-05
-0.0001588974624455449
1.204456355073508e-06
0.0005713905262426998
-2.051127225543075e-05
-1.519943835508459e-05
0.002065647795708636
-0.002058949123533895
3.166860481663047e-06
5.315688409216092e-06
-1.675045034376456e-06
2.365776043871521e-06
1.263848041459258e-06
-4.445641039645739e-07
-5.041732828028683e-07
-5.038308329045687e-07
-4.837935400822386e-07
0.0005188237746793216
2.781215575528923e-07
-0.0005181594290028499
-3.0204098343007e-06
-0.002066483385849963
1.704871262474646e-05
0.002073408222928956
3.530037799220629e-06
-2.579299642766039e-05
1.412761474802509e-06
-0.002049105911761218
1.262669291347092e-06
5.387577505477882e-06
6.411529346519692e-06
2.230159360118835e-06
-2.40107778003288e-05
-0.002059335623742424
2.674547684690503e-06
-2.360898670515803e-05
0.002072734683029652
3.795115872655683e-06
-1.349360765692321e-06
5.585777564436431e-06
1.582238821160032e-06
2.659751422842747e-06
-5.974620550178308e-07
-5.341797005469829e-07
-5.799761380960086e-07
-6.000797412641977e-07
-0.0005155339300994713
2.141806491381694e-07
0.0005165338620652758
-2.964403782610949e-06
-0.002052318546744815
-1.398798800769716e-05
2.666539707655166e-06
-1.975290435987279e-06
5.136549454911812e-06
9.967103531837611e-07
2.151535841725226e-06
-4.254862629508274e-07
-3.687680112281482e-07
-4.022348476991902e-07
-4.221445935178268e-07
1.439029586512489e-05
0.002052728334065812
1.750852683280306e-06
-2.229675964935963e-05
1.38879564844123e-07
0.0005134155232005477
-3.074604647585748e-06
1.206853651323705e-06
-2.240406907542278e-05
6.26751304198643e-06
1.748026846014084e-06
7.755731789000188e-07
5.252638104001086e-06
2.100427487036567e-06
5.159996074697139e-06
-2.199797188227225e-06
2.14433158431709e-06
8.500418470204984e-07
-2.871487395427559e-07
-3.421428347230441e-07
-3.354121036206674e-07
-3.148500906786336e-07
2.510423062442004e-06
-2.189884712726732e-05
1.969962184455072e-07
-0.000515023268276285
-2.250138655280663e-06
-0.002080859555748291
-2.277905820667008e-05
0.00209004757843568
5.087028253129918e-06
-5.570312998490125e-07
6.355464564424191e-06
2.381712332539474e-06
3.436569854881191e-06
-7.978068890351605e-07
-7.240407637340107e-07
-7.854536594708293e-07
-8.054068741876247e-07
2.977071881171174e-07
0.0005200038493806051
-3.829598885465483e-06
1.976745873220119e-05
0.002081658663436865
3.680843663062095e-06
-2.976469957954834e-05
2.275395463453732e-06
0.002080574335324293
-3.433754586268443e-05
8.233700345934228e-06
4.401204871980858e-06
3.442761875762713e-06
7.185888748415024e-06
4.357065631350072e-06
5.944811731482943e-06
-9.697416430228163e-07
3.023818086124317e-06
1.960362574728394e-06
-6.200842764975416e-07
-6.880333677213642e-07
-6.928539885960386e-07
-6.727587626017227e-07
0.002090303196626496
4.688219382771317e-06
-3.383641534426784e-05
0.0005231033241478964
3.722286384437711e-07
-0.0005221356780239554
-4.195969235435803e-06
0.002100878039469064
-2.66269215753185e-05
5.744595794066602e-06
6.854920822292425e-06
-6.584684157244546e-08
3.925537529595136e-06
2.882435406026856e-06
-8.259140805321656e-07
-9.069092839248825e-07
-9.157434991956823e-07
-8.966153181148872e-07
3.085411624871418e-05
-0.002100949667369797
6.053716608399362e-06
-4.546492520442295e-05
4.866528479529302e-07
-0.0005275184494601758
-5.796569659997151e-06
2.525181908295152e-06
4.436338576448937e-06
8.124324944474328e-06
9.181642748868729e-06
5.392259585811185e-06
-4.009857432388642e-05
6.630374708711095e-06
4.864202623476631e-07
7.422292663206371e-06
3.453562294831596e-06
4.485373507518732e-06
-1.042089265635012e-06
-9.51958676477082e-07
-1.035405901539572e-06
-1.053283215382371e-06
4.81332456887057e-06
-3.956153501172475e-05
3.956785413909716e-07
0.0005246180933760933
-5.101078399749513e-06
0.0008479817370676555
-7.609655184649642e-05
-0.0007434712229022162
8.025661326014182e-05
-0.002387983202659788
0.002279312627081246
-0.0001474339685898268
0.0002838890555247431
0.0002869128183821293
0.0001471920526822363
0.0002707485578000168
-0.002623864555534862
0.002344707727832626
0.002510065275725165
-0.0001379398649867377
-0.000271377411484696
0.0001706961463092165
-0.002271444145562739
0.0007622511935408002
-0.0002013566396053538
0.0002351608332374649
0.0007836500626182407
0.0007606075233660303
-0.0006000476402284225
8.354450298355701e-05
-0.002390609563883401
-0.0003408436581543111
3.036081054784348e-05
-8.592048956799243e-05
-1.414909847548379e-05
0.0007351429771290487
0.0007336395613372389
0.0006102897962678641
0.0006512615676634635
-0.002427456402484174
-0.0004135869013153769
0.0007435049384797735
0.0007467287108464337