/*--------------------------------*- C++ -*----------------------------------*\
  =========                 |
  \\      /  F ield         | OpenFOAM: The Open Source CFD Toolbox
   \\    /   O peration     | Website:  https://openfoam.org
    \\  /    A nd           | Version:  7
     \\/     M anipulation  |
\*---------------------------------------------------------------------------*/
FoamFile
{
    version     2.0;
    format      ascii;
    class       volVectorField;
    location    "0";
    object      U;
}
// * * * * * * * * * * * * * * * * * * * * * * * * * * * * * * * * * * * * * //

dimensions      [0 1 -1 0 0 0 0];

internalField   nonuniform List<vector> 
12679
(
(1.047512930471152 -0.02792675701970944 -0.003633931691430817)
(1.101741179488581 -0.004150726352978295 -0.0002647987030178181)
(1.138807391408909 -0.00468747314833164 6.246976413690379e-06)
(1.133246232286594 -0.08524278913670909 -0.000336784148149425)
(1.128358830684668 -0.1007409779995135 -0.0005511433540750985)
(1.182958998849136 -0.02632064055193347 0.005782566579714848)
(1.172155004269033 -0.002976428091604468 0.0001127357912984192)
(1.179780767881059 -0.02358947860206233 0.0007363253855228453)
(1.176314053583989 -0.01032129333321201 0.002420045576354403)
(1.188457161531767 -0.03640367252129022 0.007562684596004627)
(1.210348325494839 -0.07588652147564774 0.0016637663635594)
(1.203871925208688 -0.06500414202934916 0.01119644614501877)
(1.185121327794016 -0.03249360136035814 0.0009639120512963975)
(1.18340513156858 -0.2741300747842883 -0.004172808005516626)
(1.220548589998589 -0.1013266574395751 0.001821935995319345)
(1.221526059022719 -0.1161800737207926 0.01351651650914398)
(1.205620159443834 -0.2499953709754618 0.0006557312980526109)
(1.182945457058052 -0.004669046605047644 0.001825851015151421)
(1.181993683299715 -0.004879257651611014 0.000235426909303327)
(1.22083680598448 -0.02753159436205306 0.008151766296730844)
(1.248935220557944 -0.04204857790066874 0.00146123602329739)
(1.251500117423336 -0.04218078205796443 0.01192043725073522)
(1.21896530699435 -0.02577264396174239 0.0009976723387905902)
(1.326447888606064 -0.09777514442490426 0.02030687887924203)
(1.262693562294559 -0.05059535956155328 0.001577917405889147)
(1.266028811804569 -0.05504274918603838 0.01338004257151311)
(1.3215062589669 -0.09621775796176707 0.00235918997617989)
(1.184694902182218 -0.00695463456298932 0.002354144871012496)
(1.191803012890495 -0.01168461374556029 0.0005300129926539252)
(1.192946748713965 -0.01155013890359383 0.004175766874447348)
(1.183697291182711 -0.006437071713234023 0.0002938155912318261)
(1.213309760453181 -0.02195681319594685 0.007247011888101036)
(1.195661713671483 -0.01384757207202732 0.0005987574160811075)
(1.196928670378352 -0.01473837989914123 0.004821015333565719)
(1.211722381507286 -0.02201882900908046 0.0009087377574963717)
(1.355454891556726 -0.1417048301549902 0.02272689583254549)
(1.396749515188288 -0.3558255782414185 0.02474550677382141)
(1.348381878911423 -0.1256607027391113 0.002442479294335863)
(1.359264120712742 -0.1519936916980998 0.03082908639023174)
(1.373989113510967 -0.1906880233856955 0.05422850233779052)
(1.181533244347469 -0.0001443790887164335 0.0003379238159503667)
(1.181491156309286 -0.0006760019697456515 6.199443148855198e-05)
(1.241662635607041 -0.003219227287575047 0.003772938398945981)
(1.260944884930514 -0.01304918039703133 0.000924923757557064)
(1.254636883282245 -0.003842192360368894 0.004330677305604329)
(1.240829349486889 -0.01000036659713377 0.0007447495146380957)
(1.290222460652653 -0.005165114153152368 0.008460684153159578)
(1.269060416921863 -0.01440998779231674 0.0009811495169882068)
(1.270375037292376 -0.004655483166841118 0.004989516288831938)
(1.299256584985134 -0.01970285978511702 0.001252233805666179)
(1.189997186599306 -0.0008623707912865232 0.001212212346653828)
(1.194876098025186 -0.003505769711939689 0.0003107073345010902)
(1.193311873305245 -0.00103393556492908 0.001439361218502015)
(1.189705918835082 -0.00268568039243059 0.0002399172857485233)
(1.202129209469641 -0.001288185660989127 0.002816246484284024)
(1.19693006472596 -0.003822820253980677 0.0003324650561143875)
(1.197277069701982 -0.001226666741202684 0.001679308814090322)
(1.204232094705495 -0.004852637658570753 0.0004152760544279028)
(1.74587415761119 -0.3719803878656672 0.1954915297645993)
(1.598170408876929 -0.1207105246974477 0.02816449648585004)
(1.52893960649248 -0.09077472286046202 0.002788586956738888)
(1.783905584296763 -0.1572219464312498 0.14718396066943)
(1.849637290220441 -0.1622093956473216 0.1898152532100624)
(1.182176059468233 -0.0002854793985538248 0.0004031170391131745)
(1.183929399766297 -0.001508431309496138 0.0001397706691503915)
(1.183397481184825 -0.0004185138187911423 0.0006007305411764674)
(1.181932907558548 -0.000888178480257579 7.994615950403563e-05)
(1.236012113739665 -0.002899001881376501 0.003525374241469038)
(1.221174609108193 -0.007200696824515606 0.00057353234301558)
(1.226478235817263 -0.002226264416428252 0.004392177378217704)
(1.235259804283293 -0.009164058944089237 0.0007041459433098166)
(1.314245277003419 -0.00722757957850196 0.006851591000327601)
(1.361432816583294 -0.03313248623170161 0.001779904257489372)
(1.345960691728073 -0.009397722493745578 0.008223016327311136)
(1.311879249325925 -0.02222802037690336 0.001336075664539803)
(1.188563840151242 -0.0007636027107920632 0.001097881049777012)
(1.184828472747104 -0.001734090045177487 0.0001575960365789052)
(1.185085221066324 -0.0005577759688713208 0.0007962826202986001)
(1.188283490864363 -0.002425711392957083 0.0002206506955590344)
(1.207530118405677 -0.00168889120991063 0.00222715371134211)
(1.217211469925213 -0.006636502185079832 0.0005421424472898685)
(1.217746840296217 -0.002097780271139292 0.002711054381751728)
(1.207094355501965 -0.005262399728277055 0.0004408502373867709)
(1.492893538764206 -0.02273802824183774 0.01400629643628251)
(1.383539546231747 -0.038949664715082 0.001901284970975147)
(1.388771524454127 -0.01283614231556752 0.00999561988076245)
(1.480086010388788 -0.06990741220455507 0.002654618348083617)
(1.707398915383604 -0.1151781752019675 0.1152696780879041)
(1.658424501913478 -0.1063901013098585 0.08365131430571907)
(1.126373012508564 -0.04599361391464826 -0.001553027046376327)
(1.071018273783825 -0.01962875895483614 -0.001694708885375532)
(1.069309347003516 -0.02719032477245225 -0.002247117901496295)
(1.172762281445595 -0.03158334333366464 0.003943951289705131)
(1.165226848287971 -0.003731393047539165 8.152548574122837e-05)
(1.138905033655483 -0.03436674059317221 6.991494034128685e-06)
(1.138905180116229 -0.004933408758168141 4.668053351487077e-06)
(1.138818409260004 -0.02522874679772932 -7.954405402822845e-05)
(1.170719540828564 -0.02865934880417469 0.0005514199402249937)
(1.158977831621898 -0.01400665341597603 0.001040519350275863)
(1.081558183393593 -0.129337292138115 -0.01171568403532303)
(1.058327429934811 -0.04785472429017301 -0.004404930717090931)
(1.176258766603402 -0.04314277458323879 0.004976517423093224)
(1.138628733514142 -0.04549729447834816 -2.476333803367067e-05)
(1.149395986305443 -0.07662300870989858 -0.0001118229589073998)
(1.188248931295421 -0.08569556147995111 0.001002408763310665)
(1.137967605566414 -0.04768328003615235 -0.0005927880147230172)
(1.184599193920068 -0.0738231471280236 0.006470553866956368)
(1.174343416688794 -0.03908277124421281 0.0007018839658768653)
(1.145423662302853 -0.2289332869294408 -0.009967249351513283)
(1.09659308890811 -0.1474084480696629 -0.001611239781475972)
(1.125071210649325 -0.1037109302478092 -0.004877463421569996)
(1.191422951525466 -0.109881019958034 0.0009505963456988634)
(1.091271184447794 -0.1471437005331026 -0.01241131843453189)
(1.163000164035576 -0.1186666424549873 0.0003126627490762352)
(1.160728003596901 -0.2184105320997521 -0.0006951190789431406)
(1.179485288287071 -0.006609859516755695 0.001332549974503163)
(1.173406756807753 -0.009286171520706847 0.000310661866442419)
(1.172609152614569 -0.003064834273373555 0.0003380920648874071)
(1.173856118066837 -0.009374782033072597 0.0009817301597158906)
(1.180268105186603 -0.006678649684918378 0.0002642101818773535)
(1.177956179471532 -0.002172852687132495 0.0004635251714568274)
(1.182637428708842 -0.01144616631414957 0.00226285266593317)
(1.180287758997593 -0.0238230954688269 0.002345429759713958)
(1.175907242727354 -0.01601535451139789 0.0005189502886526357)
(1.189442677688789 -0.01600450633663837 0.0006000466310986407)
(1.17638631721579 -0.01616643413662342 0.001649769573597982)
(1.187586854022435 -0.01697053680009533 0.003264883805571103)
(1.181868008642087 -0.008953046245590819 0.0003429226737900675)
(1.216588216694595 -0.043121433282545 0.007101808240981029)
(1.240323279624361 -0.05604533727327594 0.001595479874817273)
(1.21084224851864 -0.07700449832330739 0.005333423322804525)
(1.200513684718455 -0.05736501638639303 0.00144095274192455)
(1.201073261602511 -0.05812217938587812 0.004610425500284411)
(1.232753048397262 -0.0588180307034129 0.008780935074190033)
(1.214286944270402 -0.03523944340172024 0.001140404726724157)
(1.204088512524228 -0.03197323401092395 0.005642543528466716)
(1.185657197463764 -0.03284232953978568 0.003074469336760009)
(1.193036388500264 -0.01913264603937755 0.0006927973628447001)
(1.192024454152421 -0.04341418101630143 0.00120100221677311)
(1.194603792343803 -0.02360008541757915 0.004377884295250723)
(1.192584040139599 -0.04392824846402974 0.003836182404363127)
(1.20774749086643 -0.02994619229626933 0.001023608636837461)
(1.291922462525877 -0.1979838200781235 0.02008501319675881)
(1.248649242972997 -0.3390047757684835 0.01020025479855778)
(1.215873239482552 -0.2122312094948594 0.007322618703824939)
(1.19569177973179 -0.263012870890442 -1.987610887275873e-05)
(1.286604903641065 -0.2223871842409773 0.02586161643429176)
(1.268448928494416 -0.3105482252423591 0.01238964221393237)
(1.222479395254793 -0.1989855139138921 0.007007795966687199)
(1.276063876913143 -0.1197814920766458 0.01221831377258829)
(1.251762198138342 -0.06740531593317904 0.001720375972379846)
(1.220829133156431 -0.1029723621992531 0.005848162285795434)
(1.228315301621454 -0.1370689144965818 0.001819592534233645)
(1.253002071392793 -0.08230004294547387 0.0106141348965169)
(1.228108807933159 -0.1394508160189193 0.005815497741443305)
(1.29509542043344 -0.1202996231855745 0.002204059099541484)
(1.293827312983967 -0.1832746997238378 0.01234930640996361)
(1.203119843826868 -0.254652160089441 0.001199115994879029)
(1.314994492931224 -0.3225433539466335 0.001705898998950625)
(1.227094294807985 -0.1868648425110554 0.001499996854759288)
(1.279471388026536 -0.2900233276890378 0.008133777904826112)
(1.22600594470706 -0.190222066514484 0.004595422664513215)
(1.311289915015235 -0.1528801992100778 0.002100412353513657)
(1.181124170936513 -0.00122412070880776 0.0003420462128025225)
(1.179892605974561 -0.002026242049387005 0.0001044762378718397)
(1.180038385174434 -0.002012992100664087 0.0003299727417144476)
(1.180537747316468 -0.001247404399191063 0.000513866381136335)
(1.181991417599572 -0.002072331873348078 0.0005579044156020467)
(1.18214919050582 -0.004799338287134856 0.0007316052384218072)
(1.180740365215786 -0.003467031548551966 0.0001586599645593131)
(1.183642121553142 -0.002582641288721046 0.0001539806797047069)
(1.180887967270158 -0.00340604594922973 0.0004416643419418342)
(1.183304235701039 -0.002927964508857545 0.0008166782956407402)
(1.181662430992501 -0.001541707429702617 8.747475608617012e-05)
(1.242576750226647 -0.02174125930181176 0.004800997200728243)
(1.259282555641529 -0.02226426913643638 0.001037075312588069)
(1.24934426694106 -0.04160086327737058 0.004534854124902736)
(1.237313085338228 -0.0355318033299416 0.001257812516976994)
(1.255569626763473 -0.02587527121779173 0.005569126388415118)
(1.23769273480221 -0.03511286026743236 0.003643260653370053)
(1.239681697064252 -0.01720592835407055 0.0008378759879957774)
(1.231687325820143 -0.01832508075951315 0.004262388624726319)
(1.219263483158867 -0.02541722618865983 0.002893694999903)
(1.220407943984908 -0.01240777213631544 0.0006432002269975088)
(1.227409649683348 -0.03008817401171126 0.001155073414225871)
(1.222509762484496 -0.01564268232274123 0.003700235544270395)
(1.227730155853356 -0.02969826674663268 0.003550916633395045)
(1.234224352639234 -0.01567971247585407 0.0007869725806586259)
(1.290460510398128 -0.03846433563987826 0.007456950483800512)
(1.267168775469473 -0.02472937931753614 0.001107733969605984)
(1.263198446753155 -0.05015781746084991 0.004561569802056933)
(1.278994706835296 -0.06136364914760862 0.001852307888475629)
(1.271275494058049 -0.03139081855070967 0.006320372432408944)
(1.279536456840702 -0.06093863083098306 0.005852847890150234)
(1.296235310060973 -0.03344159755385673 0.001408007967360796)
(1.314362605740923 -0.04852499551202811 0.008596952540445247)
(1.322239031301856 -0.09609602504413375 0.007717090816365364)
(1.354739597538593 -0.05559053839384624 0.002003662811233785)
(1.298457571332769 -0.07620647634667149 0.001974088787249528)
(1.344616684279261 -0.06258300620500763 0.01042355770378185)
(1.299161793308455 -0.07592144152124575 0.005699383061629161)
(1.308302159238066 -0.03795231216074774 0.001513467068510898)
(1.19017711338515 -0.005895511451458836 0.001566359290360489)
(1.194473692133339 -0.006015505520887959 0.0003443538785889177)
(1.191991246200698 -0.01149753013712764 0.001619960380317873)
(1.188561494294983 -0.009812550270819731 0.0004384337965801526)
(1.188741180070746 -0.009648275347754736 0.001265717575148918)
(1.19358107387655 -0.007028150777628314 0.001873176186420958)
(1.189360873147702 -0.004640224512511482 0.0002676938938199068)
(1.187360994401661 -0.00482033129874639 0.001317599509521083)
(1.183859991462777 -0.006325693101068622 0.000840760106261246)
(1.184532790430562 -0.002999157515724277 0.0001759462722183565)
(1.185872881843681 -0.0080246999299242 0.0003760626021735921)
(1.185084655879821 -0.003862976978238955 0.001044006755191216)
(1.186041138468429 -0.007892736373108552 0.001154549453228836)
(1.187951837098902 -0.004160770035057232 0.0002439122640949874)
(1.202441448317491 -0.00975474513758294 0.002514469279131985)
(1.196505930570172 -0.006599487296941006 0.0003712540329845631)
(1.195867256929327 -0.01362545717392246 0.001735032221938963)
(1.200200592561425 -0.01617862851596768 0.0007045452917355214)
(1.197643189306441 -0.00833625703562285 0.002155950659473995)
(1.200418186289962 -0.01592986770761484 0.00215161729735494)
(1.203715537877246 -0.008323863880797392 0.0004613956424898212)
(1.208089876079602 -0.01144128300248949 0.002848984733846822)
(1.211982178214827 -0.02170127890049267 0.002780210360965862)
(1.21650592974391 -0.01137355181109801 0.0006040246296162518)
(1.205520869863224 -0.01894502175905837 0.0007820666182190834)
(1.214716361128881 -0.013327597749151 0.003286779177800383)
(1.205764109585146 -0.01865866304233546 0.00226900768451858)
(1.206542089142067 -0.009077158907336876 0.000493147387349464)
(1.358356049065002 -0.4207344809516743 0.04683682284551333)
(1.491675876737502 -0.4834024004298335 0.09692030184513122)
(1.519866356655935 -0.06087623003512775 0.114985989577366)
(1.679002508604132 -0.1148495339479343 0.1678231368336506)
(1.591649769164849 -0.07988050972521812 0.04034313881092601)
(1.618202743365725 -0.08437083101743574 0.06135518715686147)
(1.498062698772476 -0.1862921217888394 0.01691064141825968)
(1.401762979320845 -0.2370472813177151 0.002921002702110613)
(1.402892733310691 -0.2388977921175598 0.008595888927000602)
(1.485509045002379 -0.2234930342651064 0.00900181106275999)
(1.434916280571499 -0.1201773403786308 0.01501807357126106)
(1.349350368221242 -0.126018074383984 0.007079276499376175)
(1.375033148003644 -0.06564001699640967 0.002154599846231197)
(1.377359220002419 -0.1689420538436711 0.002979816780955531)
(1.383840853571688 -0.0846458278941396 0.01221931763509117)
(1.378241254184925 -0.1698168539826346 0.01038372659473795)
(1.458358194332874 -0.1129717841415313 0.002895699055405367)
(1.529606375459912 -0.3130630122387525 0.08552740081250754)
(1.380925775526893 -0.3702248022066424 0.04987620404744518)
(1.518164953169014 -0.3759905154161751 0.09536685105462631)
(1.395967658979802 -0.3440044308495349 0.0482370850358096)
(1.523804781522594 -0.2622841291495613 0.07325405691642752)
(1.405240652666274 -0.2900311978926952 0.03605778273321276)
(1.402463128773302 -0.3073228013728639 0.04301312598234538)
(1.515732009427266 -0.2320101036303782 0.05748143439486665)
(1.181002821332796 -0.0002103010062586132 2.532655866357384e-05)
(1.181038278339065 -0.0002056884350752448 6.916294623479649e-05)
(1.181532371701209 -0.0006639412138975134 0.0001804828715884789)
(1.181166573374042 -0.0004675666648293041 4.198263287874272e-05)
(1.18120816519598 -0.0004565487497819442 0.0001126876848008604)
(1.26108869560148 -0.01281400747730773 0.002576908451450124)
(1.253602032210155 -0.01192602650202703 0.0008537537400898403)
(1.253738433401025 -0.01170877991008508 0.002324968946183315)
(1.240941819553396 -0.009817462815999023 0.002034518764735158)
(1.246920558397374 -0.01088001927123857 0.0008040770222816159)
(1.24704288598563 -0.0106827544116594 0.002242526688848262)
(1.269224332437912 -0.0141580062091278 0.002657406273009476)
(1.278051062705714 -0.0158847536404225 0.001069343816587054)
(1.278232443955522 -0.01560917511058679 0.002972694760563372)
(1.299479598683037 -0.01936697075958914 0.003478258144862489)
(1.288063531676371 -0.01769181370619191 0.001141208191806481)
(1.288272072322621 -0.01738689146566427 0.003075490985408652)
(1.194928455360216 -0.003437229736000679 0.0008748023043367956)
(1.192995219878753 -0.003223700774690489 0.0002850147867386625)
(1.193046985101855 -0.003159515497632763 0.0007881411707780753)
(1.18975365472891 -0.002632949802493573 0.000663173983102513)
(1.191274225384103 -0.002941050277339526 0.000263893055971755)
(1.191323912588712 -0.002884428659440658 0.0007437436519356788)
(1.196985079477225 -0.003748521998897177 0.0009185675605740866)
(1.199166178316682 -0.004138601504870725 0.0003603673481814968)
(1.199223944534643 -0.004059311566238149 0.001013019248130461)
(1.204294213369546 -0.004758731399753482 0.001166396378004456)
(1.201596201177896 -0.004493484560551668 0.0003847490002768936)
(1.201657136148505 -0.004405268601169311 0.00106259186723223)
(1.76646964239378 -0.4830257320646554 0.2089981552650883)
(1.75513844393067 -0.6004864658064913 0.2081988762705359)
(1.53021281888948 -0.09028490050443587 0.006741176843797052)
(1.59129017494368 -0.122608634679835 0.003482022494452998)
(1.593251714341765 -0.1223711352219866 0.01000311526785258)
(1.183971671092955 -0.001478494459773367 0.0003967291804543216)
(1.183150700963622 -0.001301560487169173 0.0001190312504321732)
(1.183193524043373 -0.001274753364102768 0.0003283342403219679)
(1.181974861136443 -0.0008732908017790783 0.0002212225844848406)
(1.182485998779774 -0.001088425255498711 0.0001006772213145494)
(1.182528728363915 -0.001068265070923134 0.0002878642318825615)
(1.221258284924839 -0.007065183796799936 0.001575670564206636)
(1.225479647819146 -0.007781323255460968 0.0006169695004012977)
(1.225569356524264 -0.007636335606068528 0.001725745973528591)
(1.235361371026611 -0.008993147378239775 0.001967723320037568)
(1.230162561754356 -0.008456590052203318 0.0006540146948870749)
(1.230260268423177 -0.008297105871871305 0.001793233685824669)
(1.361803225900277 -0.03262316273419905 0.004938833026544625)
(1.34255439485847 -0.02877748499411832 0.001590297718890427)
(1.342903861844195 -0.02832857922286809 0.004213160753729747)
(1.312142515756243 -0.02186738685047925 0.003570472042035839)
(1.3261848754554 -0.0250953900432555 0.001480790632065778)
(1.326478913310643 -0.02469128974397292 0.004105464938405459)
(1.184871655689779 -0.001699653686459381 0.000434917259102197)
(1.185851279863739 -0.00195272821527768 0.0001790516084756221)
(1.185895802333187 -0.001915173722724603 0.0005064297716035042)
(1.188329494519986 -0.002377964991700689 0.0006230739078479119)
(1.187001528369062 -0.002191009588522582 0.0001981120798279614)
(1.187047374017545 -0.002146699379624558 0.0005475875943300108)
(1.217288685640284 -0.006509963812064188 0.001519059191945597)
(1.213563765501831 -0.006149982373052816 0.0005041232572094217)
(1.213638853502059 -0.006031261816629422 0.001388448745358365)
(1.20716055133878 -0.005161463675651458 0.001215554353369494)
(1.210198172926737 -0.005676763150181821 0.0004747793515585989)
(1.210268343878484 -0.005569139701596218 0.001331439821875948)
(1.383994766840136 -0.03841150685231488 0.004958945232801016)
(1.409714175992172 -0.04615744354975818 0.002155870280380636)
(1.410211735942423 -0.04553547118557385 0.00599007234949684)
(1.480819965144092 -0.0691941032542694 0.00743866807881462)
(1.441311895947732 -0.05628690388225752 0.002295780785004458)
(1.44196400275214 -0.05564272625427262 0.005851526125025146)
(1.183615536905937 -0.004800925808353277 0.002413654156774406)
(1.186755920845112 -0.005154224518428193 0.00426961444468115)
(1.185390512223271 -0.007075881521415446 0.003124565308295879)
(1.194050235463995 -0.01173903388606052 0.008302390850833116)
(1.19376308413916 -0.01187018652334383 0.00552579665591655)
(1.188654506241249 -0.0077548912395108 0.005546278254412187)
(1.222115748371309 -0.0283626808611438 0.01087024628018455)
(1.249430449314945 -0.04516942413910378 0.02524404491026654)
(1.22830984249873 -0.03184475225667633 0.01955627116231218)
(1.253370562916204 -0.0440046376301885 0.0159051402746838)
(1.214453834728446 -0.02266437097998018 0.009619185885351036)
(1.201968109323966 -0.01662036158866001 0.01141941814606881)
(1.213045923540533 -0.02298204758533908 0.01508205022188841)
(1.197806184614999 -0.01507395213782232 0.006403915151132315)
(1.329917552554883 -0.1043538598491048 0.027249239846181)
(1.279128990807809 -0.06711667733223187 0.03275913509725578)
(1.268226643064233 -0.05750694907979873 0.01798108523420211)
(1.345867040824536 -0.1275422328210364 0.04908086114984444)
(1.182321649991612 -0.002096616096179105 0.0009150141370761218)
(1.184161719230027 -0.00288551355264045 0.00189296303426648)
(1.182441197400076 -0.00467416560878156 0.001270961464496134)
(1.181686060378566 -0.003875530446415853 0.001272233423869308)
(1.18118384019787 -0.003810617446002802 0.0008114896343172787)
(1.183640270309245 -0.002864726241023569 0.001317701129776045)
(1.182831361628751 -0.002129846906860576 0.001332884688997102)
(1.181948955188536 -0.0004013469689264933 0.0005834462074358327)
(1.182449768000033 -0.0003930701031948118 0.0008109364620273636)
(1.182834335752323 -0.0006952971048525993 0.0009800606929792751)
(1.184700035249034 -0.0009453382872653174 0.001934370981252391)
(1.184176953670331 -0.0009726108602258003 0.001394246972737339)
(1.183343529595288 -0.0006796067863901593 0.001365003905764304)
(1.181449939962601 -0.001168154961500727 0.0005476223781252044)
(1.180828209937812 -0.001830700067596005 0.000764514957003908)
(1.180337818766951 -0.001779815657062139 0.0005404352468857119)
(1.181950443775842 -0.001188609848741587 0.0007926413048886133)
(1.232457199700555 -0.01814303971829536 0.006870276546571298)
(1.224250399344037 -0.01593336800273489 0.008706375117967249)
(1.229385277840382 -0.03008645560698348 0.009295174421351738)
(1.219862829548617 -0.02727300942275103 0.00533320678290995)
(1.233668245534839 -0.01839368451324326 0.009929510207037168)
(1.223192738810514 -0.0157010515828168 0.005996224582260436)
(1.228304744820173 -0.02991306366874909 0.006342292455611698)
(1.245841097863611 -0.007361439221351018 0.008469994414375449)
(1.26144197656519 -0.008607980029846737 0.01354190318545131)
(1.259673852158183 -0.008753982274197061 0.009760660075311791)
(1.247313035685839 -0.007230964863853604 0.01176832932445413)
(1.234351753135872 -0.006159192295399297 0.007409572490518181)
(1.225812028767081 -0.005157733115724148 0.009002289273382405)
(1.235600860962664 -0.006030757538713266 0.01028456364707308)
(1.224730229563872 -0.005268925511930899 0.006478620625228384)
(1.243493999829241 -0.02187361924778263 0.00777115766070144)
(1.239742218727944 -0.03821781706742672 0.01042395776500419)
(1.258320708739981 -0.02611350805320943 0.01296601145621567)
(1.250067468140367 -0.04183682943103507 0.008146806252223601)
(1.256636217720147 -0.02566820604674834 0.008959026411905413)
(1.244914570589034 -0.02226069121380368 0.01130552767318595)
(1.23847577262618 -0.03778181118974172 0.006786196785882115)
(1.316508728382123 -0.04928035782185829 0.01385829857238292)
(1.351663598692818 -0.06463822855600335 0.02419065977339021)
(1.303339440698804 -0.08432110606772771 0.0173769866450093)
(1.323561392745575 -0.09603392795012121 0.01413380345886581)
(1.319826800841652 -0.05075816312872561 0.02027217628468501)
(1.34731871915711 -0.06257036368141869 0.01665363824616505)
(1.300807921627912 -0.0826718501012193 0.01112257353193305)
(1.297587751729096 -0.01316937360579236 0.01325565625754316)
(1.278770451145224 -0.01059321742733629 0.01567983600380902)
(1.27658543489273 -0.01072546210746957 0.01129290509228359)
(1.300366427016625 -0.01304056290855741 0.0183662289361808)
(1.324364212993092 -0.01687257808537213 0.01572246521069828)
(1.364706216763134 -0.02205963455587556 0.02644558751366695)
(1.328056461926818 -0.01682250081083116 0.02179920505683785)
(1.359541858866305 -0.02198807327463488 0.0191050814873023)
(1.292078383171512 -0.03827288757396489 0.0119589119040541)
(1.282495076384884 -0.06186116927660464 0.01543903707256469)
(1.274672371388683 -0.03240897937944647 0.01489420250400677)
(1.264287679467332 -0.05423880692925108 0.008646968366095117)
(1.272609601128713 -0.03170115283373987 0.01021346742486557)
(1.294641988866592 -0.03915579763723563 0.01732943930939354)
(1.280487212328715 -0.06112788696417826 0.01060384511541892)
(1.187725135316416 -0.004740376024573101 0.002129009999189301)
(1.185974429878604 -0.003924012534212459 0.002461052412321623)
(1.186895632018879 -0.007853590456368966 0.002944590621809034)
(1.184174419663581 -0.00689485507271981 0.001536000314760511)
(1.185434164881978 -0.003880189428735179 0.00169914294040948)
(1.188290380544772 -0.004777299919360038 0.003062398164180232)
(1.186355630684208 -0.007849248016117021 0.002027640403561745)
(1.191231712187467 -0.001974134289275362 0.002719123508826097)
(1.195379596379607 -0.00227996255088781 0.00446679585056018)
(1.191834932431554 -0.001923432632826818 0.003777303731747737)
(1.194733868461503 -0.002342556335738884 0.003219269582079094)
(1.188338434322833 -0.001604192722433127 0.002258681440478205)
(1.186544554213768 -0.001260083420546662 0.002519669773976553)
(1.186001695190713 -0.001293688629663654 0.001813262494026761)
(1.188907496345934 -0.001559706176209843 0.003133297548411467)
(1.190564875965689 -0.005909804789547667 0.002545302786155464)
(1.189664889730174 -0.01048292845511696 0.003517999006682496)
(1.19463198509608 -0.006989807810820097 0.004358713389559667)
(1.192340676619353 -0.01152930558002524 0.002860256751056388)
(1.191163990242111 -0.005975689234411296 0.003685150843195411)
(1.189090770284339 -0.01040526435714225 0.002307848700829383)
(1.193992283761544 -0.006928952437562965 0.003026532346290252)
(1.208629765097088 -0.01146886653858518 0.004620925004737267)
(1.216242008216395 -0.01332852676625418 0.007656411917529452)
(1.20703029912663 -0.02016900773168791 0.0063329956291923)
(1.212454208293734 -0.0218662260860406 0.004944818109636096)
(1.215310831673501 -0.0131766659980057 0.005304340419051944)
(1.209465204721151 -0.01161733502484703 0.006699754226280582)
(1.206245506785125 -0.02000466225802402 0.004155361341729907)
(1.203874165771347 -0.003257328244181202 0.004333175726350598)
(1.199618542775351 -0.002724727700040913 0.005205480271980231)
(1.198919234393198 -0.00279391797610091 0.003747056453939701)
(1.204639162438201 -0.003174588537315344 0.006013626379892087)
(1.209721022808904 -0.003841689882875033 0.004965080874441776)
(1.217554166152206 -0.004356731384269318 0.007889763171890867)
(1.216603959128083 -0.004461846578696627 0.005684185933749865)
(1.210568790379062 -0.003752143765082785 0.006898431627988472)
(1.202925058736115 -0.009631959758123809 0.004061066105814595)
(1.20152458788809 -0.0160782142980392 0.005581848350815947)
(1.198783591657932 -0.008450883987829672 0.005069363471423471)
(1.19627001038895 -0.01462816105199912 0.003166541425409914)
(1.198091084747981 -0.008352493364839094 0.00349979237430518)
(1.203679749322677 -0.009727831465465022 0.005855059119771767)
(1.200818167793506 -0.01603170885868602 0.003813221376699894)
(1.439167307123609 -0.1210386582647396 0.02418450260905697)
(1.393322414723693 -0.09038022568982781 0.02907705313993036)
(1.382985347385237 -0.1736019950346776 0.02628227470011343)
(1.351956772606118 -0.137928719306705 0.01443838596333346)
(1.387487546501656 -0.0865711282133137 0.01970676110644379)
(1.446450859691016 -0.1276688370069753 0.03563336470894653)
(1.379966239201065 -0.1687518997078404 0.01902494807686466)
(1.47938086523283 -0.045741963434979 0.03073103240086776)
(1.415928754830514 -0.03126108482665731 0.0329849939324777)
(1.408087819033891 -0.03071980556811615 0.02371008329610761)
(1.492634022433757 -0.04768405975465521 0.04324920257392607)
(1.467551611679298 -0.1543090304087445 0.06103689715296849)
(1.400985276034632 -0.09698860995381581 0.03904479350745274)
(1.364279265762579 -0.1593514583388483 0.0382564786167172)
(1.385843321907906 -0.1881614151095793 0.03496238885318358)
(1.389295232427317 -0.1985099857536981 0.04271573296569834)
(1.410797749395819 -0.1050209916186039 0.04967112379531828)
(1.455856478053552 -0.1395016265600982 0.04794369901746963)
(1.573235714307132 -0.07089490273670637 0.0969261326463578)
(1.485128976340482 -0.04925479581150313 0.08982021760647957)
(1.613005591030525 -0.09042412687377871 0.1220631340607662)
(1.460834198828653 -0.04207038385477214 0.07152780503823988)
(1.53748150729162 -0.05970185186016092 0.07626614408535068)
(1.426952988948258 -0.03345405665549924 0.04419322911138189)
(1.441598167982132 -0.0367961206348621 0.05685620317987466)