-19.00000000000001 	1.000000000100845e-07 	9.999999999352313e-08 	-0.9995774386064518 	-1.398976690054549e-08 	-2.687768950276713e-12
-17.66666666666668 	1.000000000167841e-07 	9.999999999352313e-08 	-0.99945053528795 	-1.782900564831824e-08 	-3.545022716599663e-12
-16.33333333333334 	1.000000000273121e-07 	9.999999999352313e-08 	-0.9992820083508377 	-2.042822617498577e-08 	-4.795783718981186e-12
-15.00000000000001 	1.00000000008936e-07 	9.999999999352313e-08 	-0.9990419700671416 	-1.971404223948709e-08 	-6.960471816587709e-12
-14.00000000000001 	1.000000000028106e-07 	9.999999999352312e-08 	-0.9988127880470727 	-1.656314140446532e-08 	-6.895433843850293e-12
-13.33333333333334 	1.000000000094145e-07 	9.999999999352311e-08 	-0.9986200695863121 	-1.259858717552724e-08 	-1.121745502217479e-11
-12.83750000000001 	1.000000000127643e-07 	9.999999999352311e-08 	-0.9984532082868293 	-8.648268237299941e-09 	-9.61002662019582e-12
-12.51250000000001 	1.000000000123334e-07 	9.999999999352311e-08 	-0.9983312779219387 	-5.768622984765028e-09 	-1.396024962877816e-11
-12.18750000000001 	1.000000000112802e-07 	9.999999999352313e-08 	-0.9981938369964889 	-2.99830548984453e-09 	-1.555886416493146e-11
-11.86250000000001 	1.00000000010609e-07 	9.999999999352313e-08 	-0.9980353287886462 	1.352422667562627e-10 	-1.732654457412826e-11
-11.5375 	1.000000000091223e-07 	9.999999999352313e-08 	-0.9978588711311607 	3.731981842667198e-09 	-1.933206100825407e-11
-11.2125 	1.000000000034193e-07 	9.999999999352313e-08 	-0.9976618523701466 	7.68459706859146e-09 	-2.163559509688871e-11
-10.8875 	9.999999999550177e-08 	9.999999999352313e-08 	-0.9974411366659828 	1.191606441704481e-08 	-2.429757126602808e-11
-10.5625 	9.999999999458626e-08 	9.999999999352311e-08 	-0.9971929967200485 	1.635096199012737e-08 	-2.738641855071146e-11
-10.2375 	9.999999999421407e-08 	9.999999999352311e-08 	-0.9969130057351558 	2.090646110463993e-08 	-3.09846120409552e-11
-9.912500000000001 	9.999999999068932e-08 	9.999999999352312e-08 	-0.9965958816907977 	2.5501038965722e-08 	-3.519399402710836e-11
-9.587500000000002 	9.999999999171818e-08 	9.999999999352311e-08 	-0.9962352823089111 	3.005680991595288e-08 	-4.014151364673411e-11
-9.262500000000003 	9.999999999075945e-08 	9.999999999352308e-08 	-0.9958235427757682 	3.451120402558653e-08 	-4.598632898500681e-11
-8.937500000000002 	9.999999998360231e-08 	9.999999999352307e-08 	-0.9953513409822621 	3.881398340665936e-08 	-5.292909880505672e-11
-8.612500000000001 	9.999999998537637e-08 	9.999999999352308e-08 	-0.9948072680671701 	4.293587467387413e-08 	-6.122433226300084e-11
-8.287500000000001 	9.999999997987902e-08 	9.999999999352308e-08 	-0.9941772751052955 	4.685751183123402e-08 	-7.11967995341036e-11
-7.9625 	9.999999997472243e-08 	9.999999999352309e-08 	-0.9934439602043567 	5.057564827613308e-08 	-8.326313889729119e-11
-7.637499999999999 	9.999999997575664e-08 	9.999999999352309e-08 	-0.992585653756176 	5.408260958182915e-08 	-9.795992399229824e-11
-7.312499999999996 	9.999999996945953e-08 	9.999999999352307e-08 	-0.9915752289844251 	5.737095167869604e-08 	-1.159813845790056e-10
-6.987499999999988 	9.999999996703988e-08 	9.999999999352307e-08 	-0.9903782771116441 	6.039762908934071e-08 	-1.382500661637477e-10
-6.662499999999975 	9.999999996478455e-08 	9.999999999352308e-08 	-0.9889654565622342 	6.311477828147333e-08 	-1.662007056779633e-10
-6.337499999999945 	9.999999997527352e-08 	9.999999999352308e-08 	-0.9871971328025139 	6.531330181186748e-08 	-2.117616984184504e-10
-6.093749999999891 	9.999999998271977e-08 	9.999999999352305e-08 	-0.9856460349646613 	6.650087782870037e-08 	-1.915645322694883e-10
-5.931249999999771 	9.9999999976641e-08 	9.999999999352303e-08 	-0.9845310017166311 	6.666399374946171e-08 	-2.671491685468891e-10
-5.76874999999949 	9.999999997613775e-08 	9.999999999352303e-08 	-0.9832873694770847 	6.650152366198609e-08 	-2.929696060552734e-10
-5.606249999998861 	9.999999998207598e-08 	9.999999999352305e-08 	-0.9818685781590566 	6.585458668531822e-08 	-3.262953013186521e-10
-5.443749999997479 	9.999999998078509e-08 	9.999999999352305e-08 	-0.9802936605429536 	6.449109273563573e-08 	-3.660325145094609e-10
-5.281249999994501 	9.999999997573192e-08 	9.999999999352305e-08 	-0.9785331435647042 	6.217324763859833e-08 	-4.12005388735164e-10
-5.118749999988198 	9.999999998072661e-08 	9.999999999352305e-08 	-0.9765584042765932 	5.857605735150936e-08 	-4.650121585093117e-10
-4.956249999975081 	9.999999998842676e-08 	9.999999999352305e-08 	-0.9743376533133664 	5.330245847627867e-08 	-5.264037120793454e-10
-4.793749999948282 	9.99999999905093e-08 	9.999999999352303e-08 	-0.9718335335934367 	4.578968533938006e-08 	-5.97918773255189e-10
-4.631249999894595 	9.999999999140118e-08 	9.9999999993523e-08 	-0.9690015103520759 	3.532794826354953e-08 	-6.816935559471017e-10
-4.468749999789363 	9.999999999354207e-08 	9.9999999993523e-08 	-0.9657883426250248 	2.092287079568673e-08 	-7.80351232239497e-10
-4.306249999588243 	9.999999998991464e-08 	9.999999999352303e-08 	-0.9621303299078999 	1.294468407370988e-09 	-8.971312941823963e-10
-4.14374999921553 	9.999999998223877e-08 	9.999999999352303e-08 	-0.9579512518755944 	-2.533767938871632e-08 	-1.036042534684019e-09
-3.981249998550494 	9.999999997936049e-08 	9.9999999993523e-08 	-0.9531599873908096 	-6.13014727239216e-08 	-1.202032070096441e-09
-3.818749997420078 	9.999999998017215e-08 	9.9999999993523e-08 	-0.9476470396720795 	-1.098109045377146e-07 	-1.40126636672838e-09
-3.656249995614879 	9.999999998278605e-08 	9.9999999993523e-08 	-0.9413313225149614 	-1.76475046482576e-07 	-1.642618155480878e-09
-3.493749992939637 	9.999999998724924e-08 	9.9999999993523e-08 	-0.9336979853606956 	-2.669486441862698e-07 	-2.015866537570575e-09
-3.371874989140408 	9.999999998961331e-08 	9.9999999993523e-08 	-0.9271852841176033 	-3.496333583574582e-07 	-1.804023340965599e-09
-3.290624982422786 	9.999999999148541e-08 	9.999999999352301e-08 	-0.9226654932766265 	-4.189529323714995e-07 	-2.453906034916039e-09
-3.209374969581438 	9.999999999136431e-08 	9.999999999352303e-08 	-0.9177388288009494 	-4.994504697976375e-07 	-2.663391215836048e-09
-3.12812494641264 	9.999999998981757e-08 	9.999999999352301e-08 	-0.9122255182704375 	-5.931334612967596e-07 	-2.91676499879615e-09
-3.046874905943908 	9.999999999028535e-08 	9.9999999993523e-08 	-0.9062474673181765 	-7.019908686642081e-07 	-3.210372075419797e-09
-2.965624836823186 	9.999999999027423e-08 	9.9999999993523e-08 	-0.8997340233196818 	-8.282572948758432e-07 	-3.541838633047099e-09
-2.884374721041082 	9.999999999084751e-08 	9.999999999352299e-08 	-0.8926217536354502 	-9.747535640246979e-07 	-3.914274664721403e-09
-2.803124530842018 	9.999999999298276e-08 	9.9999999993523e-08 	-0.8848452000611043 	-1.144633107530939e-06 	-4.333896715338055e-09
-2.721874224958575 	9.999999999444592e-08 	9.999999999352303e-08 	-0.8763310203617733 	-1.341587337153802e-06 	-4.808689666931047e-09
-2.640623743925606 	9.999999999302697e-08 	9.9999999993523e-08 	-0.8669949985273766 	-1.569675991580922e-06 	-5.34813220272766e-09
-2.559373001220951 	9.999999998924559e-08 	9.9999999993523e-08 	-0.8567399642630713 	-1.833626496299485e-06 	-5.963407201268835e-09
-2.478121859557795 	9.999999998635901e-08 	9.999999999352297e-08 	-0.8454536154914718 	-2.138712033572338e-06 	-6.667823613114795e-09
-2.396870076462568 	9.99999999885043e-08 	9.999999999352297e-08 	-0.8330058161565513 	-2.491160978177146e-06 	-7.477376262621368e-09
-2.315617222896341 	9.999999998840266e-08 	9.999999999352297e-08 	-0.8192451335329487 	-2.898032329256092e-06 	-8.411454063502812e-09
-2.234362636989368 	9.999999998634601e-08 	9.999999999352297e-08 	-0.8039944033958136 	-3.3675135617999e-06 	-9.493742213647494e-09
-2.153105523796773 	9.999999998825148e-08 	9.999999999352299e-08 	-0.7870450690261489 	-3.908586930151156e-06 	-1.075338616573798e-08
-2.071845239521296 	1.000000658339856e-07 	1.000000699312681e-07 	-0.7681499362719894 	-4.531513200297062e-06 	-1.222652144177134e-08
-1.990581635900637 	1.00000065835427e-07 	1.00000069931268e-07 	-0.7470138056915464 	-5.248392482795428e-06 	-1.39582568784282e-08
-1.909315335138999 	1.000000658376951e-07 	1.00000069931268e-07 	-0.7232812236837788 	-6.074759457302968e-06 	-1.600542576298914e-08
-1.828048060098451 	1.000000658386936e-07 	1.000000699308656e-07 	-0.6965203779699641 	-7.031193860039109e-06 	-1.851905207803695e-08
-1.746783329006326 	1.000000658386922e-07 	1.000000699313437e-07 	-0.6662018924798542 	-8.146160460794166e-06 	-2.203016793605303e-08
-1.665527783232708 	1.000000658386922e-07 	1.000000699303263e-07 	-0.6316708681026729 	-9.460737086748658e-06 	-2.580570028017031e-08
-1.584293192154576 	1.000000658386922e-07 	1.000000699272681e-07 	-0.5921098826557412 	-1.10383101347395e-05 	-3.247942118399311e-08
-1.503098930932952 	1.000000658386922e-07 	1.000000699280301e-07 	-0.546489686011566 	-1.298431594698091e-05 	-3.732300315726195e-08
-1.421974044809849 	1.000000658386922e-07 	1.000000699318278e-07 	-0.4935020470735191 	-1.549767070927987e-05 	-4.85801672654333e-08
-1.340955648437589 	1.000000658386922e-07 	1.000000699327755e-07 	-0.4314585279328915 	-1.906706738116006e-05 	-5.333476015954704e-08
-1.260074432258662 	1.000000658386922e-07 	1.000000699325389e-07 	-0.358891602583476 	-2.557892008600935e-05 	-7.185274527753989e-08
-1.179305711724888 	1.000000658386921e-07 	1.000000699318363e-07 	-0.2686300327644395 	-3.898880153063194e-05 	-8.960168620661222e-08
-1.123278622229609 	1.000000658386921e-07 	1.000000699307645e-07 	-0.1963915719067263 	-6.297189024135034e-05 	-1.100574574456335e-07
-1.103098801478092 	1.000000658386921e-07 	1.000000699309552e-07 	-0.169309013349276 	-8.224181345466849e-05 	-1.207063578105977e-07
-1.098217271011159 	1.000000658386921e-07 	1.00000069930809e-07 	-0.1626871623584858 	-8.75276199092961e-05 	-1.228482687783432e-07
-1.078038296649316 	1.000000658385171e-07 	1.000000699308231e-07 	-0.1316921173293705 	-0.0001415717373601847 	-9.943423963915551e-08
-1.048181115006367 	1.000000658377444e-07 	1.000000699308522e-07 	-0.08430443811822998 	-0.0002512669932103162 	-9.262158763647229e-08
-1.028144210611891 	1.000000658374453e-07 	1.000000699308522e-07 	-0.0494227942133306 	-0.0003625424729814922 	-1.159970298075816e-07
-1.009074614411678 	1.000000658380382e-07 	1.000000699308522e-07 	-0.01874846028795457 	-0.0004371171031915684 	-0.003197203165992751
