/*--------------------------------*- C++ -*----------------------------------*\
  =========                 |
  \\      /  F ield         | OpenFOAM: The Open Source CFD Toolbox
   \\    /   O peration     | Website:  https://openfoam.org
    \\  /    A nd           | Version:  7
     \\/     M anipulation  |
\*---------------------------------------------------------------------------*/
FoamFile
{
    version     2.0;
    format      ascii;
    class       volVectorField;
    location    "0";
    object      grad(Phi);
}
// * * * * * * * * * * * * * * * * * * * * * * * * * * * * * * * * * * * * * //

dimensions      [0 1 -1 0 0 0 0];

internalField   nonuniform List<vector> 
12687
(
(-1.00051340010163 -2.353826556793642e-06 4.710383660323808e-05)
(-1.00042129482303 -1.224732326793824e-06 3.350790812082164e-05)
(-1.000357586259042 -7.622768765774356e-07 2.376796250049336e-05)
(-1.000310756201207 -4.91752800403119e-07 1.697914703566648e-05)
(-1.000276195605688 -3.167192962168489e-07 1.212103154351206e-05)
(-1.000250786449699 -2.005014886597201e-07 8.572797105946175e-06)
(-1.000232420142046 -1.233967345824687e-07 5.915076246091756e-06)
(-1.000219681723281 -7.352261197302932e-08 3.85335494475373e-06)
(-1.000211647859618 -4.365621970760758e-08 2.171647575145853e-06)
(-1.000207761888469 -2.966400727618708e-08 4.675174673794099e-07)
(-1.000935952875919 -2.254544170415018e-06 3.098499382586168e-05)
(-1.000678159064407 -2.698890632433046e-06 0.0001218482184185674)
(-1.001849604163567 -9.093218660913109e-06 8.338834525432933e-05)
(-1.001009630550828 -2.637466171017813e-06 3.384950369256367e-05)
(-1.053705569235006 -0.004198474483772212 0.03424057718936319)
(-1.019578457443073 -0.0002313672330288189 0.001029450047487967)
(-1.00898935077986 -6.860909078646365e-05 0.0003789025728879128)
(-1.004679364261965 -4.449080837212281e-05 0.0003053466046411595)
(-1.002044095147044 -1.086467611112821e-05 9.631895236296756e-05)
(-1.062642789718478 -0.0006530468136405051 0.002417357696564578)
(-1.141467443497471 -4.553526761537692e-05 0.007002269065012715)
(-1.157288335573217 -5.040628989849013e-05 0.008046743386675884)
(-1.111115083773377 -0.0006901624795417275 0.100004957716657)
(-1.107009790052043 -0.01060470473294141 0.09634843267000361)
(-1.151507940251634 -0.0007886941735396683 0.007765689315909314)
(-1.131523618963105 -0.001723904270780994 0.00664697406591268)
(-1.093542719293452 -0.02263511884701545 0.08220735121622595)
(-1.105831751192596 -0.01208552093201505 0.09524416082070018)
(-1.149822673802954 -0.0009007652746924691 0.007680176629031835)
(-1.001749714257737 -6.384263638329365e-05 0.0005805549299023378)
(-1.001882492845386 -1.318008140746218e-06 8.604980943354553e-05)
(-1.001779598144905 -9.377286803466672e-06 0.0005984045596772727)
(-1.001400549408985 -5.437558396710515e-06 5.534947311340523e-05)
(-1.001339028496029 -3.929010293796632e-05 0.0003935661774284224)
(-1.001420663867596 -7.809778037082382e-07 5.687056234438909e-05)
(-1.001357729718415 -5.740597752030884e-06 0.0004037953261914398)
(-1.000976121728538 -2.018474350500285e-05 0.0002502443481972915)
(-1.001020289424598 -4.003323533780817e-07 3.454784158997584e-05)
(-1.000986164141814 -3.207659936640399e-06 0.0002538702974661289)
(-1.001285034264153 -4.585958279833268e-06 4.861301600649345e-05)
(-1.001232258521475 -3.358859652499169e-05 0.0003484254369354616)
(-1.001302191664019 -6.579017557659594e-07 4.990514438623017e-05)
(-1.001248375097676 -4.90407598701108e-06 0.000357098761651599)
(-1.223935181919173 -0.003640498273253822 0.09720818708401725)
(-1.249847795208376 -7.486617687921186e-05 0.01479810612607275)
(-1.248084456098048 -0.0005328845224923074 0.01471856597747497)
(-1.225563771853376 -0.0005127498073985924 0.09773472538907577)
(-1.04198231703423 -0.003523317177186446 0.04712272750314334)
(-1.053204934189858 -0.004733521549524882 0.03381232219344705)
(-1.039562717123283 -0.008655211718728406 0.0431637765225834)
(-1.021916548703776 -0.0002746166369680651 0.001196428575844504)
(-1.015121484368208 -0.003457300436640671 0.01471526293967074)
(-1.024083017469886 -2.02131108672727e-05 0.001376496811206726)
(-1.016312336038863 -0.0002564884807793939 0.01682100678532764)
(-1.013897171098419 -0.002947265269679173 0.012850836079782)
(-1.021402817448706 -1.698035114871859e-05 0.001176948446027534)
(-1.014943661064324 -0.0002181351852678311 0.01460368630421976)
(-1.009806696295372 -7.882479808392993e-05 0.0004109516265726593)
(-1.007937587515147 -0.001066580541656766 0.005491452359759244)
(-1.010424756215265 -5.629284027835965e-06 0.0004523475121100359)
(-1.008366380423565 -7.735805483621268e-05 0.006007531288326528)
(-1.007357455385351 -0.0009559491141738826 0.004919589699715414)
(-1.009527518542643 -4.876006293086201e-06 0.0004152519151231053)
(-1.007745556567944 -6.777564071889207e-05 0.005345794804498642)
(-1.005387299176209 -5.614115607268924e-05 0.0003699141997221208)
(-1.004782750426242 -0.0003704777881224411 0.002432206302052722)
(-1.005586138149898 -8.438170918427363e-06 0.0003927658441400901)
(-1.004944978197991 -5.596986357807412e-05 0.0025782369493923)
(-1.004200661214401 -0.00029592259602979 0.002022914628541276)
(-1.004836916629058 -6.652914384657485e-06 0.00032263176299214)
(-1.004331818281136 -4.447637695368516e-05 0.002134123114441652)
(-1.003182256396416 -2.33405154187462e-05 0.000179700162483644)
(-1.002930831797936 -0.0001583848633845895 0.001213672343304355)
(-1.003265145290907 -3.443543952421029e-06 0.0001877079272178288)
(-1.003002892462217 -2.354343517030083e-05 0.001266290664111747)
(-1.001925471592414 -7.570370775418278e-05 0.0006663269517441308)
(-1.002083185156872 -1.580013308821152e-06 9.958477608648279e-05)
(-1.001960731328752 -1.114203608043472e-05 0.0006881654262020846)
(-1.002829129468091 -1.910616283295946e-05 0.000152549798897527)
(-1.002622917305647 -0.0001304732522719628 0.001036454105661074)
(-1.00289712988674 -2.808002227234672e-06 0.0001588704990763546)
(-1.002682676755936 -1.933967328026042e-05 0.001078207136870543)
(-1.165875315035943 -0.02855418143339777 0.2163475467296762)
(-1.192269937137197 -0.01698785599321628 0.1122110588154632)
(-1.158180972139844 -0.02010690331582097 0.1901640378555934)
(-1.200884257149915 -0.0118734111718807 0.1165519786845544)
(-1.153738143330435 -0.02577205118946643 0.1858434305090342)
(-1.118490386612048 -0.001515149789630939 0.005758274867545389)
(-1.054320492088752 -0.007506434380439878 0.03499958838631943)
(-1.086529870057071 -0.02004115530115643 0.07227776253239157)
(-1.097659566302637 -0.01088473701957167 0.08386299166218089)
(-1.069943656382729 -0.0003790393404856767 0.002794906160655747)
(-1.057167211500853 -0.005244110467454567 0.03751803698036042)
(-1.134736791859164 -0.0008078267410095104 0.006669666595639318)
(-1.102482497785046 -0.000626411732502643 0.08820257394850101)
(-1.073180477689144 -2.211386318861208e-05 0.002952937425134948)
(-1.074759895099102 -0.0004221487776968154 0.05497356390636795)
(-1.098732420133957 -0.009567589587411931 0.08486372724213437)
(-1.070658659389983 -0.0003356938134447716 0.00283040364150553)
(-1.057718782286877 -0.004647339955411894 0.03799536919036842)
(-1.136250242466107 -0.0007087090594595691 0.006746786910811837)
(-1.20905388683764 -0.004601424329880059 0.1202802170329523)
(-1.166320377930552 -0.001096935728147808 0.1972478663069263)
(-1.165668749172788 -0.005523747077798571 0.1967211532953143)
(-1.210601718546412 -0.0006483716194359811 0.1209422334853237)
(-1.207997403384701 -0.005965911944431915 0.1198190832267782)
(-1.161630360732075 -0.01491566529826588 0.1932935924201756)
(-1.162992157766165 -0.01246503043626339 0.1944780086545134)
(-1.203110944329387 -0.01031306002814145 0.1176047136595549)
(-1.222821255935717 -0.004720989047419492 0.09684126992289289)
(-1.241275610646623 -0.00119831669680763 0.01440376884039861)
(-1.217656699527531 -0.00816872790819634 0.09507803808130637)
(-1.246879026570878 -0.0006913293812813131 0.01466436178446003)
(-1.199850367788459 -0.003309511414699091 0.08309776573832389)
(-1.221118419880351 -6.794587823698491e-05 0.01259436152630444)
(-1.146129829797315 -0.0003489422626660956 0.05403717579748669)
(-1.156068268172277 -0.0003592844624565943 0.007988882019566577)
(-1.14499132674724 -0.002463342642202123 0.05364526209328449)
(-1.21950105869582 -0.0004839966380504922 0.01252031439894463)
(-1.20134835892586 -0.0004668339124647687 0.08359243101413558)
(-1.187665614019106 -0.00418523769628404 0.1031598602326461)
(-1.130585505899647 -0.002509611562226606 0.1296804415992489)
(-1.13910408255736 -0.0004421843810853091 0.0676023213963361)
(-1.110677952707084 -0.003463660863153194 0.09962963103726258)
(-1.130239938153917 -0.004194809744863285 0.1293872350540843)
(-1.138017165458505 -0.003119832727591397 0.06710838275051417)
(-1.189090450121706 -0.0005906392469902224 0.1037821879429628)
(-1.186699092408847 -0.005420245060026348 0.1027303233955641)
(-1.125857997057637 -0.01299782736989681 0.1254912862540187)
(-1.118132729413472 -0.008502312272736186 0.1116667707083166)
(-1.133969969476958 -0.006828732738998397 0.06520049175410639)
(-1.128147114377194 -0.009378042887105561 0.1275675960066383)
(-1.182252695859824 -0.009321822606189615 0.1006833033789199)
(-1.137287501742494 -0.004027834590404358 0.06677241837193394)
(-1.198832704220674 -0.004286937125903201 0.08275622849229466)
(-1.213324921735868 -0.001081526834347895 0.01222923999853248)
(-1.155248190837389 -0.0004641819881036634 0.007949612471720451)
(-1.140744424610977 -0.005396358015966629 0.05213031907774272)
(-1.194141441758442 -0.007379325559551821 0.08112741737380401)
(-1.144226505842294 -0.003180782758551985 0.0533786360936796)
(-1.218402208994537 -0.0006272314478459136 0.01246985737038054)
(-1.206137907671833 -0.01348580317744004 0.09077414249212729)
(-1.238707663053277 -0.001381261120966664 0.01427949078600541)
(-1.21529760307139 -0.009408820009850672 0.09423904513680635)
(-1.22868537194322 -0.001985418518316399 0.01376490335417122)
(-1.233715662333007 -0.0100279623062823 0.04482176058721921)
(-1.224945179554032 -0.01650368069325638 0.07304791477362609)
(-1.202341703499128 -0.0149776636201033 0.089237407305058)
(-1.224506653380298 -0.002207706657030779 0.01353606920407842)
(-1.138183752415117 -0.04235247713959693 0.1676396858954257)
(-1.178449538414218 -0.03365468214820019 0.1407984188406354)
(-1.188714722726497 -0.0188525672030856 0.1102894247909527)
(-1.145161763681981 -0.03531783172908376 0.1764596957913756)
(-1.164176872230994 -0.002244480601281933 0.009026808843710226)
(-1.140940630051276 -0.009681078559952323 0.03770958835428841)
(-1.157263648040671 -0.01104598815641721 0.04399757392050887)
(-1.180382731458072 -0.01331321516022588 0.07582021738886086)
(-1.140785141166705 -0.001367849333775876 0.007193577385057283)
(-1.130821095244759 -0.009328545429832396 0.04826063611770739)
(-1.198309417897982 -0.001959852848658952 0.0114416831368648)
(-1.121273167941449 -0.02607279793680293 0.09866354431751388)
(-1.109665338490353 -0.01764655012361701 0.06580049900099202)
(-1.132302090873309 -0.02277516728562794 0.0876128720908441)
(-1.169288902195673 -0.0167717678737846 0.09403152982422137)
(-1.105840243287566 -0.02211025985078302 0.09933271863193564)
(-1.11463290950207 -0.02486378272303668 0.113912092119853)
(-1.124554491930032 -0.01178215382883196 0.06033896738417232)
(-1.172472853400214 -0.01517399646480378 0.09576303463352542)
(-1.124441729102745 -0.01487052665887537 0.1241606556649403)
(-1.103032552936011 -0.015098027602707 0.09251955909204676)
(-1.132480817860735 -0.007792388067670167 0.06447110411878197)
(-1.180235125471389 -0.01070672307891869 0.09971603547368381)
(-1.121062011119161 -0.01875099777670062 0.1208379420140927)
(-1.126834239198533 -0.01076980578947304 0.06157055370746126)
(-1.183773277997018 -0.01203662459883823 0.07720392311755682)
(-1.211009111587604 -0.001243586486577503 0.01211524592086794)
(-1.143396117863592 -0.001248804122112552 0.007338987336605579)
(-1.139178961182328 -0.006159756698640307 0.05155060861718896)
(-1.192008093395287 -0.008479134476410417 0.08035706645970531)
(-1.133229318375208 -0.008523125798139517 0.04924223661125442)
(-1.202027570179561 -0.001769993104755435 0.01164749453037145)
(-1.100347456561236 -0.0007599147760153681 0.1076942888083521)
(-1.09665118281999 -0.01165321787462443 0.103711221354178)
(-1.084726041520397 -0.02472535889994153 0.08843151631560169)
(-1.095595963817461 -0.01327325357310832 0.1025112355206537)
(-1.078991338803723 -0.02193479645733573 0.07804671130662044)
(-1.051297445816855 -0.008307875516110735 0.03846893257703153)
(-1.088902596951407 -0.01196828190208506 0.09058447640375752)
(-1.053929283767773 -0.005807664897244306 0.0412267275550919)
(-1.093258304259907 -0.0006903349384444478 0.09531438586399872)
(-1.069622662679681 -0.0004668274911568353 0.06005523804050289)
(-1.089868178884705 -0.01052503429574628 0.0916734078606479)
(-1.054440107178311 -0.005147039387888921 0.04175152010316849)
(-1.226818277043486 -0.01098923657267095 0.04345743901354848)
(-1.21831699595954 -0.018072593459469 0.0708125090034723)
(-1.134341865222295 -0.04599821982786609 0.1622586808140518)
(-1.173289196917817 -0.03670150226898148 0.1363745800381179)
(-1.127967955307724 -0.001837765060864094 0.006424889668701558)
(-1.137068418075427 -0.01035653900688416 0.03644873241839726)
(-1.159527671018318 -0.002413941194517861 0.008727608119488053)
(-1.152843901200309 -0.01187175993834218 0.04253586372457985)
(-1.106839402941163 -0.01877249484169724 0.06360477838429592)
(-1.091252326195315 -0.02404123594436195 0.07947252098213457)
(-1.118057846260125 -0.02792311070132208 0.09536550169995316)
(-1.128716626122871 -0.02441876248927118 0.08468842083186864)
(-1.00090909536971 -1.347676458190548e-05 0.0002394614761715362)
(-1.000945520531271 -3.494900150480293e-07 3.152280146778195e-05)
(-1.000913320467152 -8.930607014925301e-06 0.0002297275052299326)
(-1.000768548532148 -1.1657961655385e-05 0.0001423045171715684)
(-1.000775211355196 -4.241823731261158e-06 0.0001467765308533284)
(-1.000784657441758 -3.68560480066214e-06 4.726723707040081e-05)
(-1.000790304992818 -1.24142413205118e-06 4.796845153206405e-05)
(-1.001679097817534 -1.704824226268179e-05 0.0002249572806433418)
(-1.001832510182738 -2.787471596688882e-05 0.0002540894930628833)
(-1.001865925492047 -6.588032519516901e-06 8.470638309614073e-05)
(-1.001679952991305 -7.641285342551138e-06 7.247981403295665e-05)
(-1.001848576107048 -2.020296972314274e-05 0.0002580199177735932)
(-1.001665490668584 -2.354411930792072e-05 0.0002217239686896139)
(-1.00169376015458 -5.530672382335297e-06 7.356352394405947e-05)
(-1.001090669127091 -7.478205263837432e-06 0.0001205075211568413)
(-1.001003605785847 -8.244050043053803e-06 0.0001065256328822553)
(-1.001014825312968 -1.956002555779682e-06 3.421106540172801e-05)
(-1.00109132328437 -3.196856862522e-06 3.792613913826775e-05)
(-1.001008817198616 -6.335889291168022e-06 0.0001075439591751787)
(-1.001084545559644 -1.019622258206062e-05 0.0001190511506043974)
(-1.00109746317171 -2.329853523142973e-06 3.840356344566018e-05)
(-1.317133022801391 -0.0008118406263491071 0.0618801345803402)
(-1.324006709118341 -9.055448932637246e-05 0.02087943565608607)
(-1.323674924567735 -0.0002717714168896669 0.0208631559534868)
(-1.317456246264419 -0.0002699238607989369 0.06192280660926741)
(-1.055481531855818 -0.0002840042174436609 0.03572400115683125)
(-1.067272398564067 -1.995958322198808e-05 0.00264410385160637)
(-1.064996163529196 -0.0003024364479218074 0.002534430564461312)
(-1.035432156531703 -0.001964949481399685 0.01735226506739385)
(-1.040827048195923 -4.289847889928817e-05 0.002740347355440861)
(-1.039803273205383 -0.0002962974484698548 0.00264618602697053)
(-1.036297892209611 -0.0002872643661850174 0.01798027901512907)
(-1.014114284946364 -0.0006199039723916702 0.004938503269752465)
(-1.018881672247991 -0.001138116506867941 0.005047680836613334)
(-1.020728640804646 -0.0001487907749342475 0.001122251113390837)
(-1.015643486876878 -0.0004980140962907998 0.002311015139885407)
(-1.019236668203105 -0.001006402343806887 0.00754246612397022)
(-1.015320727957288 -0.000821557749802684 0.003807584506781572)
(-1.014985836445554 -9.096185375718992e-05 0.0007282556855417132)
(-1.007329005728645 -0.0002048372819885663 0.001710786900757503)
(-1.008799339178221 -0.00034168826082713 0.001816552215351333)
(-1.009330264446834 -4.33904340658352e-05 0.0004018896246620046)
(-1.007351440762738 -9.345422282635584e-05 0.0005570888863985725)
(-1.008933170494823 -0.0002996891328907972 0.002624773203833067)
(-1.007172200088451 -0.0002777294488268581 0.001651543062542289)
(-1.007514345949064 -6.893726425345742e-05 0.0005771540830354987)
(-1.004085179230453 -7.799420556807539e-05 0.0007787387098796003)
(-1.004596071251141 -0.0001329667114891409 0.0009108108135832297)
(-1.00475710175914 -3.261189970908932e-05 0.000313837035237347)
(-1.004090951769239 -3.559116918520598e-05 0.0002540838478341519)
(-1.004671513969467 -9.747610613777159e-05 0.0009359359023167391)
(-1.004024579790127 -0.0001066123241751685 0.0007594590529907315)
(-1.004153226014843 -2.603391664596354e-05 0.0002605905468805484)
(-1.002266542584678 -2.879191806270183e-05 0.0003441009619418243)
(-1.002023774860811 -3.315533324854151e-05 0.0002924445782417232)
(-1.002063484400171 -7.879625534664117e-06 9.793513347946244e-05)
(-1.002268104311323 -1.304254933699253e-05 0.0001117338708309828)
(-1.002042837849275 -2.405421278896542e-05 0.0002972609938205286)
(-1.002243799637756 -3.964310910585284e-05 0.0003381542053454872)
(-1.002291266065366 -9.469628833687223e-06 0.0001137307923755189)
(-1.170725443135709 -0.02214840146356998 0.2210044123146895)
(-1.168440603566061 -0.02526472365001521 0.218858072689617)
(-1.196491604897785 -0.02267814619085496 0.2047798771182621)
(-1.199072021221667 -0.01986158364554025 0.2067260073104743)
(-1.081675349637267 -0.005222916855203285 0.02513337803968884)
(-1.074093802828558 -0.0008213519480103863 0.003033745516033951)
(-1.061355072620978 -0.003237754667208213 0.01194348257782593)
(-1.066241423278103 -0.0005440164170648312 0.002606214440037342)
(-1.063495984316956 -0.003743602518387538 0.01780994010482965)
(-1.072374090004739 -0.004067653138465196 0.0149640695215589)
(-1.085955462833217 -0.0007613058100348825 0.003697128833782934)
(-1.132123985304691 -0.0003158900387305872 0.04716737583421186)
(-1.140362067897672 -0.000324554606728563 0.00694942622328986)
(-1.131090097140381 -0.002227205999097885 0.04680855816902452)
(-1.098482744074617 -0.001639901723525341 0.03185674605926452)
(-1.10492184126147 -3.343961280269823e-05 0.004734105817097153)
(-1.104105569144248 -0.0002383446154877587 0.004694600259970774)
(-1.099251263031901 -0.0002333384100643182 0.03212635228500663)
(-1.179534839397909 -0.001196721818142843 0.2285376800542047)
(-1.179305020913692 -0.003600393429819387 0.2283582578347788)
(-1.208658016877985 -0.00321690238627981 0.2133625539034519)
(-1.208909867374812 -0.00106925507582905 0.213520696982784)
(-1.174475771711663 -0.01636029993318854 0.224355001443103)
(-1.172735325589506 -0.0191866508230833 0.2228259922350602)
(-1.203284786823022 -0.01464863124210261 0.2097594305719235)
(-1.201333221248175 -0.01719136569909922 0.2083759134358405)
(-1.30998642203084 -0.00371459584932782 0.06094099020917161)
(-1.313740404923894 -0.001462299015378989 0.02042817680452383)
(-1.307337947102478 -0.00436819506475453 0.0605787431963744)
(-1.316427232192246 -0.001243242824637746 0.02054946957583549)
(-1.172980395598937 -0.0005057103554832456 0.02763708849673503)
(-1.175504597968289 -5.57456812385032e-05 0.009292027194805345)
(-1.155374923922624 -0.0001519993688176206 0.02397408175553904)
(-1.15708602777633 -0.0001527303740910571 0.008037161952534998)
(-1.155174975027064 -0.0004579334658184309 0.02394562455500868)
(-1.175282161814761 -0.000168745204822263 0.009281560319989141)
(-1.173200093180947 -0.0001678792058846266 0.027668034524586)
(-1.11096953063515 -0.00207411369619424 0.09988036079251064)
(-1.120369694067456 -0.002283024483063782 0.1136174551434323)
(-1.120528199380765 -0.0007595455859849748 0.1137523671039893)
(-1.132408879389594 -0.002031550379469369 0.1034345853086161)
(-1.121339927184498 -0.0006135582142958284 0.09071899294327661)
(-1.121181448846738 -0.001844180024451018 0.09060741146790996)
(-1.132581886812355 -0.0006757810689302014 0.1035554424230008)
(-1.116039789431668 -0.01174610445608525 0.1097628110397671)
(-1.117168076902659 -0.01011027274682536 0.1107987851344939)
(-1.108039511340335 -0.009142773979744436 0.09729340311609702)
(-1.128901172196257 -0.009009172113194526 0.1009035928491122)
(-1.116853239437553 -0.009445007456849288 0.08743728960672627)
(-1.117981512538203 -0.008139449780737818 0.08828650140236897)
(-1.127660321702631 -0.01047188265997964 0.0999715777943961)
(-1.168485945680013 -0.002253199957657367 0.02698871238532104)
(-1.169107874602384 -0.0008771402019928428 0.008983983089029571)
(-1.152971409923118 -0.0006786653326087992 0.007838612411335568)
(-1.149662022719453 -0.002358881309381836 0.02313520293147315)
(-1.151108066005976 -0.002030122230431526 0.023352927415932)
(-1.166880754883649 -0.002622888430404359 0.02674897491251206)
(-1.170733099757405 -0.000753388917886844 0.009064290869745327)
(-1.300681430655088 -0.005792839219086354 0.05963368264720346)
(-1.310600810594153 -0.001693848031320575 0.02028297636414467)
(-1.304244415754877 -0.005058899792783384 0.06014575394422565)
(-1.306983226162515 -0.00193995446620709 0.02011111299618558)
(-1.267489192027086 -0.01146307534446751 0.05410015478886824)
(-1.273201879998496 -0.003844739432595006 0.01825260056315667)
(-1.274641378820442 -0.01033888155969552 0.05541833934636541)
(-1.280493764244171 -0.003466452001328569 0.01869533951318844)
(-1.198058921200586 -0.03832342358123091 0.1671885200052007)
(-1.220670416325374 -0.03240679483048372 0.1452875261157923)
(-1.203422386190236 -0.03473508019971603 0.1714931168620819)
(-1.226634065300545 -0.0293218884905792 0.1489610624834116)
(-1.146607289973686 -0.001965330226953123 0.007720204463430509)
(-1.144694304267001 -0.0058685701981238 0.02298045092348047)
(-1.129944166139472 -0.005149265713384395 0.01979835167462934)
(-1.148418617122097 -0.005448667942763261 0.02367211756403223)
(-1.134847939660589 -0.001606561220715091 0.006848594246441774)
(-1.133220571534245 -0.004799658257169132 0.02039932156194284)
(-1.150389147509395 -0.00182431987647802 0.007952322900845512)
(-1.101928894109031 -0.02027004956917709 0.07465261528980885)
(-1.111102418217227 -0.02297229696961869 0.08560741992330488)
(-1.10118257322569 -0.02560459737431859 0.09390316700817533)
(-1.103584884114123 -0.02387165881966289 0.09675672290410788)
(-1.095710687622232 -0.02117137489639675 0.08470953839728453)
(-1.113807508734541 -0.02139617150777087 0.08820478545064912)
(-1.104352316629918 -0.01894355045350834 0.07692476918351501)
(-1.114747400514995 -0.01341144191823959 0.1085482852591935)
(-1.104505734085887 -0.0135841916484116 0.09397126231040082)
(-1.113290758099585 -0.01510646390327419 0.1071431444502763)
(-1.124627360994585 -0.01348359113525058 0.09761123662445856)
(-1.115560200128259 -0.01076917689708744 0.08644406229199519)
(-1.114101865743969 -0.01211130559111468 0.08529804403357842)
(-1.126236160148897 -0.01196317566387405 0.09887790431881918)
(-1.162924412889275 -0.003389452425191084 0.02613924870389324)
(-1.16723240463567 -0.001003906108974663 0.008889480491166826)
(-1.147911559436549 -0.001014901653280537 0.007581210606498873)
(-1.147997176432634 -0.002693667339312126 0.02287992980765133)
(-1.146109681663464 -0.0030345354861672 0.02258454702768263)
(-1.165028841966407 -0.003001490340342455 0.02646691915207855)
(-1.165100618947311 -0.001133841838522916 0.008779671862497722)
(-1.001650280551247 -2.831501318591367e-05 0.0003729080462021085)
(-1.001798921704831 -4.621651366618499e-05 0.0004206696710409356)
(-1.001764547950767 -4.62709889217724e-05 0.0005893897552614026)
(-1.001595374282615 -5.409741347738537e-05 0.0005079784321855515)
(-1.00181448601697 -3.349761396589815e-05 0.0004271237233213223)
(-1.001637067067831 -3.910220507625069e-05 0.0003675955191538098)
(-1.0016080122024 -3.917236746087292e-05 0.0005152570580943463)
(-1.001688275009387 -1.031702343360531e-05 0.0002271471449275358)
(-1.001876942247937 -3.983480059272305e-06 8.559960115290093e-05)
(-1.001864882958204 -4.0834103248315e-06 0.000262029971247687)
(-1.001707762787108 -1.103949446130383e-06 7.466649982892114e-05)
(-1.001859419764184 -1.223426715713063e-05 0.0002606847687652126)
(-1.001703072788739 -3.341423121827239e-06 7.429710568793885e-05)
(-1.001692896637475 -3.441411537279445e-06 0.0002282517350704757)
(-1.001659191193029 -1.714024306265392e-05 0.0003765064802288135)
(-1.001774556575512 -2.802951190603202e-05 0.0005953797582756903)
(-1.001830281261718 -6.783496293744797e-06 0.0004337094005726487)
(-1.00162082373066 -7.930705495396442e-06 0.0005226754361352596)
(-1.001824989724029 -2.02903312150298e-05 0.0004314997820606039)
(-1.001616533245231 -2.371475352194744e-05 0.0005201873390318796)
(-1.001663678281336 -5.727763031905175e-06 0.0003783221936884696)
(-1.001530591083404 -1.444208654000237e-05 0.0001969572291479844)
(-1.001531317658569 -6.440915307428862e-06 6.322941183493367e-05)
(-1.001390037386094 -1.696775444661319e-05 0.0001708828114686619)
(-1.001410542619833 -3.929070752725783e-06 5.610561572169065e-05)
(-1.001399913178432 -1.226696538185515e-05 0.0001731400447982336)
(-1.001519017309167 -1.996236838736546e-05 0.0001942721499431687)
(-1.001543046751015 -4.657576182722566e-06 6.412907183968631e-05)
(-1.001506108964 -2.403175787889793e-05 0.0003269477148564714)
(-1.001459342714815 -4.603000976958394e-05 0.0004462655145231502)
(-1.001369381808753 -2.829623667838763e-05 0.0002841117553869971)
(-1.001348324225153 -2.840304801611164e-05 0.0003986412678629471)
(-1.001379024526323 -2.045727924308204e-05 0.0002878184061838428)
(-1.001494841871813 -3.321597155616051e-05 0.0003225354329377222)
(-1.001470158747811 -3.330182047695451e-05 0.0004523120388188393)
(-1.001538391490863 -8.734663553215217e-06 0.000198773145075809)
(-1.001554932379847 -9.27604753266495e-07 6.504290008644311e-05)
(-1.001417275108073 -2.370689819411409e-06 5.661505534749585e-05)
(-1.001409913710877 -2.471219849353552e-06 0.0001754267799538246)
(-1.001406565594584 -7.416103598231505e-06 0.0001746618516269613)
(-1.001550952398282 -2.811820694400875e-06 6.473712647246251e-05)
(-1.001542318301723 -2.911928579202436e-06 0.0001996880950619743)
(-1.00151370160575 -1.453903901340079e-05 0.0003299325410976981)
(-1.001481113924937 -6.735875152697469e-06 0.0004584666216820068)
(-1.001354581583338 -1.717691824605503e-05 0.0004020696689485466)
(-1.00138878534097 -4.131040661684823e-06 0.0002915774326563507)
(-1.001385517891387 -1.237122226370185e-05 0.0002903193758525161)
(-1.001477446105892 -2.014918358418177e-05 0.0004564035290349421)
(-1.001517523484031 -4.856484937617124e-06 0.000331437172367209)
(-1.001077436807154 -1.261761295411629e-05 0.0002014315702948815)
(-1.000991912259787 -1.415081726497784e-05 0.0001790593657142814)
(-1.000981220179135 -1.519508327471069e-05 0.0002521526773152833)
(-1.001052243488571 -2.43390374791227e-05 0.00027685009003238)
(-1.000997200060753 -1.078252043258404e-05 0.0001806644748814487)
(-1.001071328145325 -1.725295852303732e-05 0.0001990785045119912)
(-1.001058258940405 -1.76907388451152e-05 0.0002800193583192649)
(-1.001094833319075 -4.56739260224802e-06 0.0001214161588169785)
(-1.001018434055412 -1.206902032757631e-06 3.443507159017238e-05)
(-1.001014301098227 -1.331688450282378e-06 0.0001085247463665729)
(-1.001103771010923 -4.678398611253639e-07 3.885256218677213e-05)
(-1.001012432303724 -3.938955833128854e-06 0.0001082280307301557)
(-1.001101647343785 -1.41820264668664e-06 3.870649717779353e-05)
(-1.001096947200138 -1.529393691604909e-06 0.0001218473916696005)
(-1.001081540678906 -7.696275693498562e-06 0.0002029077516976992)
(-1.000984381630597 -9.384979172261831e-06 0.0002534711126113491)
(-1.001002646084092 -2.27053489070231e-06 0.0001821472735426371)
(-1.001064207078108 -3.614812786537894e-06 0.0002829969463910961)
(-1.00100077145377 -6.690801643836577e-06 0.0001817097415500464)
(-1.001062191927172 -1.075518519714231e-05 0.0002820640806280681)
(-1.001083624599749 -2.583272049093582e-06 0.000203602566679021)
(-1.001181997132631 -8.848169077426439e-06 0.0001354205891955286)
(-1.001182580384706 -3.848086966338955e-06 4.284477645770872e-05)
(-1.001276009756568 -1.442445079764845e-05 0.0001508823526813515)
(-1.001293556785847 -3.313184798523743e-06 4.925857738335423e-05)
(-1.001284449291338 -1.042772153668063e-05 0.000152811364583667)
(-1.0011747932802 -1.220950573746328e-05 0.0001337408800396128)
(-1.001189833667602 -2.784954319378443e-06 4.340380635075805e-05)
(-1.00116664486946 -1.485021890824451e-05 0.0002258244437277495)
(-1.001137191584121 -2.867892607599399e-05 0.0003097445738428625)
(-1.001258291776105 -2.412473508022068e-05 0.0002512393639686079)
(-1.001240276839431 -2.426880750685924e-05 0.0003527411794918944)
(-1.001266565540231 -1.743758229281516e-05 0.0002544002342923426)
(-1.001159537506798 -2.050757970585079e-05 0.0002230852101142721)
(-1.001144128285416 -2.073375460346385e-05 0.0003134624655058119)
(-1.001186858544789 -5.362261506023064e-06 0.0001365174936343928)
(-1.00119720586817 -5.541014653952954e-07 4.395078292470091e-05)
(-1.00129929984623 -1.999240032926327e-06 4.969006354547219e-05)
(-1.001292995985274 -2.100965183707042e-06 0.0001547448090359875)
(-1.001290134154063 -6.305530970353007e-06 0.0001541007367886241)
(-1.001194733660093 -1.683860402436956e-06 4.377046417556721e-05)
(-1.001189310260508 -1.788515460945858e-06 0.0001370568366937794)
(-1.001171423092324 -8.996988279002981e-06 0.0002276226295262192)
(-1.00115109938269 -4.197660397737378e-06 0.0003171517229002909)
(-1.001245664816647 -1.467417656856682e-05 0.0003556451510790918)
(-1.001274934185829 -3.521552367150739e-06 0.0002575766683538004)