/*--------------------------------*- C++ -*----------------------------------*\
  =========                 |
  \\      /  F ield         | OpenFOAM: The Open Source CFD Toolbox
   \\    /   O peration     | Website:  https://openfoam.org
    \\  /    A nd           | Version:  7
     \\/     M anipulation  |
\*---------------------------------------------------------------------------*/
FoamFile
{
    version     2.0;
    format      ascii;
    class       volScalarField;
    location    "0";
    object      mag(grad(Phi));
}
// * * * * * * * * * * * * * * * * * * * * * * * * * * * * * * * * * * * * * //

dimensions      [0 1 -1 0 0 0 0];

internalField   nonuniform List<scalar> 
12687
(
1.000513401213215
1.000421295384933
1.000357586541689
1.000310756345429
1.000276195679177
1.000250786486456
1.000232420159543
1.000219681730707
1.000211647861977
1.000207761888579
1.000935953358045
1.000678166486509
1.001849607675223
1.001009631126619
1.054270112898549
1.019579003402969
1.008989424256533
1.004679411648217
1.002044099835152
1.062645739947723
1.141488921720299
1.157316311245008
1.115606649890935
1.111245317430633
1.151534395678918
1.131544455327112
1.096861922084509
1.109991608946807
1.149848675992849
1.001749884519767
1.001882496541582
1.001779776914726
1.001400550953388
1.001339106610453
1.001420665482737
1.00135781114966
1.000976153212634
1.001020290020846
1.000986196340269
1.001285035454752
1.001232319710313
1.001302192907877
1.00124843878995
1.227794776989769
1.249935398625505
1.24817135430353
1.229454715855252
1.043053265285761
1.053758185145073
1.040494433971816
1.021917285972926
1.015234022240984
1.024083942761661
1.016451561285821
1.013982891335893
1.021403495680396
1.015048742854886
1.00980678299245
1.007953110997196
1.010424857484533
1.008384278727595
1.007369921688141
1.009527603957809
1.007759737684566
1.00538736879532
1.00478576245656
1.005586214889324
1.004948287049515
1.004202742346991
1.00483696844618
1.00433408668207
1.003182272762798
1.002931578651915
1.003265162856614
1.003003692083889
1.001925696021586
1.002083190106374
1.001960967713137
1.002829141252993
1.002623461508292
1.002897142474133
1.00268325665242
1.186122612744332
1.197659180223184
1.173861070604733
1.206585405472254
1.168894213631601
1.118506235276274
1.054927968054022
1.08911564188048
1.100912349992591
1.06994737394178
1.057845743417226
1.13475668045417
1.106005309374758
1.073184540524862
1.076164998060981
1.102046424623465
1.070662453251194
1.058411199983734
1.136270493723408
1.215030783557586
1.182882558839504
1.182164691036605
1.216628112930859
1.213939838457744
1.177696898576419
1.179206441578235
1.20888923075989
1.226659016705975
1.241359756922167
1.221390355023859
1.246965447935587
1.202729020444175
1.221183367856762
1.147403035066621
1.156095926814075
1.146249981691792
1.219565424520398
1.204253209234093
1.192144741086909
1.138001274706636
1.141108399883221
1.115142849574347
1.137629540237904
1.139998393538275
1.193610987700595
1.191149711130153
1.132904777984743
1.123727083227964
1.135863384123007
1.135375422896275
1.186568776272077
1.139253106612577
1.201693315240308
1.213387032119837
1.155275635611012
1.1419476928161
1.196916828865058
1.145475313065386
1.2184661807555
1.209624100353291
1.238790735453855
1.218982275323698
1.228764077306255
1.234570324337956
1.227232277216444
1.205741770547588
1.224583457062359
1.151242394488985
1.187307941086559
1.193968956270472
1.159215613454225
1.16421403135704
1.141604685360802
1.15815238696885
1.182890248411583
1.14080864165474
1.131888890399088
1.198365642931736
1.125907546344281
1.111754590657018
1.135914938979571
1.173183599270233
1.110512717737074
1.120714368323825
1.126233730383639
1.176474989505249
1.131373591315367
1.107008867213183
1.134341239398714
1.184488443610212
1.127711594745022
1.128566490921436
1.186349231793185
1.211070350573934
1.143420352535495
1.140361395984552
1.194743674840485
1.134330696739265
1.202085303327599
1.105605337574482
1.101605933036897
1.088605558319043
1.100461379877322
1.082032686038114
1.05203383935606
1.092729450863547
1.05475130112255
1.097405589810898
1.071307374221787
1.093767542671282
1.055278930459427
1.227636915872936
1.220506998222295
1.146810874958397
1.181758251908329
1.127987750283114
1.137699589250019
1.159563028952175
1.153689429145287
1.108824349614964
1.094406461075442
1.122464977898888
1.132152651664386
1.000909124105297
1.000945521027706
1.000913346870279
1.000768558717562
1.000775222127517
1.000784658564765
1.000790306143166
1.001679123223086
1.001832542792215
1.001865929094611
1.001679955642707
1.00184860953647
1.001665515485174
1.00169376287107
1.001090676408143
1.001003611487962
1.001014825899484
1.001091324007886
1.001008822995691
1.00108455269048
1.001097463911029
1.318586064652138
1.324171335146555
1.323839359992534
1.318910712542131
1.056085957205072
1.067275674050645
1.064999222130232
1.035579409272571
1.040830656543199
1.039806682543104
1.036453903631203
1.014126499026505
1.018894811270464
1.020729268584553
1.015646238236739
1.019265072221488
1.015328199784006
1.014986101784396
1.007330479302792
1.00880103258236
1.009330345390604
1.007351599139289
1.008936629215474
1.007173592465145
1.007514513618713
1.004085484242913
1.004596492941177
1.004757151302069
1.004090984547809
1.004671954649529
1.004024872683432
1.004153260165606
1.00226660206708
1.002023818084888
1.002063489216921
1.002268110624287
1.002042882229964
1.002243857467917
1.002291272562663
1.191608813812342
1.189029270583507
1.214101007732924
1.216923923949255
1.081979910887936
1.074098401221039
1.061427209001943
1.066244747242247
1.063651689786014
1.072486204150055
1.085962023095401
1.133106164148699
1.140383288969274
1.132060426573362
1.098945804203669
1.104931983505199
1.104115575424556
1.099720644634438
1.201471323295367
1.201216378970263
1.227350043643862
1.227621806087941
1.195824470574233
1.193870886767439
1.22151867743021
1.219392296526978
1.311408414040097
1.313900034346435
1.308748017453894
1.31658819834066
1.173306043989793
1.175541324123299
1.15562363878948
1.157113950730016
1.155423223570985
1.175318823007994
1.173526312852704
1.115452234037546
1.126118284062054
1.126287540346051
1.137124756020774
1.125003797519128
1.124838186252116
1.137306430418342
1.121485914870057
1.122694571311664
1.112340395426366
1.133437495770325
1.120310513305033
1.121491604672015
1.132131519672351
1.168799757339973
1.16914272173434
1.152998255216057
1.14989719906568
1.151346715911059
1.167190251553029
1.170768431343883
1.302060642651967
1.310758846234269
1.305640302768114
1.307139385742565
1.268695030631873
1.273338512211237
1.275887428188354
1.280634925447997
1.210275119419063
1.22971335313885
1.216076418039324
1.235993649432141
1.146634964363402
1.144939994699343
1.130129332536346
1.148675488240671
1.134869741615306
1.133414325296788
1.15041807978227
1.104640745016902
1.114632199670436
1.105475671264102
1.108075501022889
1.099184172002158
1.117499461675499
1.107190280603831
1.120100158004621
1.108579291269486
1.11853662019815
1.128935986601058
1.118956259729031
1.117428032265733
1.130631613728087
1.163223082131889
1.167266686375674
1.147937042292684
1.14822831533151
1.146336195264194
1.165333303980992
1.165134249992993
1.001650350367105
1.001799011093492
1.001764722403566
1.001595504559076
1.001814577629119
1.001637135283879
1.001608145500202
1.00168830081695
1.001876945912639
1.001864917232476
1.001707765570507
1.001859453754095
1.00170307554965
1.001692922648789
1.001659262100836
1.001774733892193
1.001830375164775
1.001620960135816
1.00182508285594
1.001616668605037
1.00166374974269
1.001530610553964
1.001531319675203
1.001390052110047
1.001410544199244
1.00139992822135
1.001519036350325
1.001543048814946
1.001506162619354
1.001459443203998
1.001369422513096
1.001348403978413
1.001379066097961
1.001494894359554
1.001470261444421
1.001538411253988
1.001554934492282
1.001417276711244
1.001409929079539
1.001406580854001
1.001550954494431
1.001542338212921
1.001513756056759
1.001481218887976
1.001354662451325
1.001388827799236
1.001385560052166
1.001477550307021
1.00151757833788
1.001077457152175
1.000991928375053
1.00098125205379
1.001052282067157
1.000997216422395
1.001071348088916
1.001058298260694
1.001094840692375
1.001018434648423
1.001014306981956
1.001103771764961
1.001012438162203
1.001101648093061
1.001096954616566
1.001081561272028
1.000984413766804
1.001002662658866
1.0010642470857
1.001000787968841
1.00106223172281
1.001083645307649
1.001182006330273
1.001182581308855
1.001276021228704
1.001293558002965
1.001284461006316
1.001174802287466
1.001189834612301
1.001166670448223
1.001137239911253
1.001258323587687
1.001240339269655
1.001266598010879
1.00115956257152
1.001144177573326
1.001186867866615
1.001197206833004
1.001299301081175
1.001293007944995
1.001290146032136
1.001194734618293
1.001189319643236
1.001171449008469
1.001151149626271
1.001245728087234
1.001274967322652
1.001272165776485
1.001148813142516
1.001173856674414
1.308262027360987
1.293581259708644
1.293275956271379
1.308577226878259
1.317917993506135
1.322116618011218
1.316882927205633
1.323162351678728
1.307609342748459
1.291658855110107
1.292642607432836
1.306595730153359
1.270228470428098
1.257112286990489
1.237796629161722
1.228633490891285
1.258023765330992
1.269289524690955
1.238660540163507
1.279254206329869
1.28384969214115
1.249646427911515
1.246416963652712
1.246131808607436
1.283538291693299
1.279560569961766
1.278629465240358
1.281938134380723
1.244672056568799
1.249061720363084
1.27767121684772
1.245553462970451
1.282906177242044
1.270840001550168
1.258907759693942
1.229183745458279
1.239506160823367
1.258617539679768
1.239227155583454
1.271139029218324
1.04324293050032
1.029649443552157
1.025856781579241
1.032996375443251
1.025857860456999
1.02560357312998
1.033778537925656
1.054325902912189
1.057805609033715
1.06435511098142
1.035009508990729
1.04083501403083
1.039247392064612
1.039136182132496
1.039981575531906
1.026963283893789
1.02787637016542
1.032350723915374
1.024088166735968
1.024628081807454
1.030777809457327
1.030677216885675
1.027828970357451
1.021092174447431
1.023282769066718
1.021512412430163
1.026603262428458
1.033938700363483
1.02866006820115
1.018126031680505
1.018068724472338
1.015783536708828
1.020401195540814
1.018842451497183
1.022177127174423
1.031145177359353
1.035322768830699
1.0235995238147
1.022225440603151
1.021794392368459
1.034485700398908
1.031866024315611
1.029089418080354
1.019656449932494
1.016314961505523
1.021060014157809
1.020661766720781
1.019537413116819
1.029738975142936
1.013578972677083
1.016372235701688
1.014464446326564
1.012018107038614
1.018342110056172
1.012191225778113
1.013542026325117
1.014275586312496
1.020995890777092
1.01986961545445
1.015398557580579
1.019504181891255
1.01514933321623
1.014503159702109
1.013719148291819
1.014929351736081
1.018903406703168
1.01263955663569
1.018564131735266
1.012548067820759
1.013933085285215
1.012819287201188
1.01176510903636
1.009589528707111
1.010197943044122
1.009741924238361
1.011471729411144
1.013547268253272
1.012354290155412
1.009280010013978
1.008765700381092
1.008806000543331
1.00944841712337
1.00953155515465
1.010366129724506
1.012947614378899
1.013900354244002
1.010287850948582
1.009953213945494
1.009825672330104
1.013687046600749
1.013143399582014
1.012475369515017
1.009814793023709
1.008335789169303
1.00964971526953
1.009528222333453
1.009773505707469
1.012660072750008
1.006974956943739
1.008082863392616
1.007545542489519
1.006342757391947
1.008682194671569
1.006829631759943
1.006471051287757
1.007437843078706
1.009408438082441
1.009121128673349
1.007682795794064
1.009009712933383
1.007626093977393
1.007492376664427
1.007074284603592
1.007716602107365
1.008858541740751
1.006603903125687
1.008752082063215
1.006559255795745
1.007124677637867
1.006232003169229
1.006246423336135
1.00528224693903
1.005485370474237
1.005377090616898
1.006111493146745
1.006371315751692
1.00596215577988
1.005478577497314
1.005078040584569
1.004865843223757
1.005166765661011
1.005850221986933
1.005578055945069
1.006314425963758
1.00650009731603
1.005552278174504
1.005474681804517
1.005441840015451
1.00645673091696
1.006356271762812
1.006038791681158
1.005681278310349
1.004920537111735
1.005258073145371
1.005227344312145
1.005646486849272
1.006077708144088
1.003953220229892
1.004434985729221
1.004267590921222
1.003709578280877
1.004506046129899
1.003895829522339
1.0037623976813
1.004126708812062
1.004810126982923
1.004749418806884
1.004217067748156
1.004723369763175
1.004195624628509
1.00414757300152
1.003992238390261
1.004311732058702
1.004578964562034
1.003816435889709
1.004554446315257
1.003798283798535
1.004011981830485
1.003593974146787
1.003598095424788
1.003139050603296
1.00322328557321
1.003179137487486
1.00354487430072
1.003648428480453
1.003487522948598
1.003290160054874
1.003054427045303
1.002967278921777
1.003092711794143
1.003440816868084
1.003333449251483
1.003627318723888
1.003699905286698
1.00325110564266
1.003220062157297
1.003206325447382
1.003682616525681
1.003644179382963
1.003519230441243
1.00337766442226
1.002991473247685
1.003131782615005
1.003118669651273
1.003362820558153
1.003535260123066
1.00221817133548
1.001983980011304
1.001943196208426
1.002126694454857
1.002002406427502
1.002196243772816
1.002147438624111
1.002281979301891
1.002076587606987
1.002062250935331
1.002314831534988
1.00205575993453
1.002306933347567
1.002289734123042
1.002232993486007
1.001955012829535
1.00202112379041
1.002168524628503
1.002014851424586
1.002161456927027
1.002240467627322
1.002525508286336
1.002527405346356
1.002793753235221
1.002862811519748
1.002826720321983
1.0024982119829
1.002555241025015
1.002467182069877
1.00235743316305
1.002724390622056
1.002653082170253
1.002755985998695
1.002440939951177
1.002382152779095
1.00254398042019
1.002583586641706
1.00288562380185
1.002860329365859
1.002849053411401
1.002574080142972
1.002553301211747
1.002484937010414
1.002407305953631
1.002673135446782
1.002788186936638
1.002777384429258
1.002398872143911
1.002493894849531
1.237797074032466
1.262485161263092
1.240837608989579
1.259256881300916
1.182879084513572
1.210909477925962
1.207334219043017
1.234350264992035
1.251457938402835
1.255589444893826
1.230476948084241
1.20873161649626
1.222386757858155
1.200983082462336
1.183558148731469
1.226095664189849
1.205251158127955
1.186680820267133
1.171522332128326
1.15806036086206
1.155943052344276
1.192324914040883
1.175611134884773
1.194880542506291
1.173301291343022
1.211839372104718
1.232316811731936
1.203954119028529
1.191960489731314
1.214589087028334
1.229399552691715
1.18947819722965
1.165970362646878
1.150936745343125
1.15356977361826
1.189443944338746
1.167813826535896
1.186227042653667
1.170704538175579
1.111538802658457
1.126689416928306
1.119176406071834
1.0896336922411
1.096416886452963
1.094729444011284
1.09426728882842
1.0687863800391
1.052121689642318
1.063488029281402
1.079421275164848
1.058674929598519
1.06197666170354
1.066364758622951
1.107109572339394
1.074375746856786
1.093147127879496
1.075833670876596
1.114398229356789
1.086663123314613
1.085174064134167
1.075611088632849
1.078734702077937
1.098220174583469
1.121655345598085
1.116479595849032
1.088149095007414
1.091883991704733
1.083362801875397
1.067293108816213
1.067174411210741
1.091103897451102
1.064648547115909
1.086844145901104
1.087425587119571
1.055751722806491
1.069900726280226
1.072723555664557
1.080752208685833
1.065382839732821
1.062940205389083
1.084106509145772
1.129011470749754
1.126750629157147
1.121351872865689
1.091179923722384
1.100015525167544
1.09506117450808
1.095907192890833
1.082530263074872
1.08189542146511
1.10558295708468
1.127767953988553
1.126760677151009
1.095629441577352
1.096377430462933
1.090344473776008
1.095530205334744
1.070259399988454
1.07264192474153
1.06974187061624
1.094793129476296
1.091044866142513
1.075588342866725
1.060413330012007
1.05998115907929
1.08748471766657
1.06836882230872
1.067867593329806
1.088161388788141
1.079574653024566
1.081472507612762
1.103887769688672
1.123025369437382
1.12608576301076
1.095130314972559
1.092882701643197
1.08987740514229
1.072280761085001
1.067855396197636
1.092087506325198
1.069397506228157
1.087776526844598
1.094301395053901
1.07348397464965
1.075204462968544
1.059694011462764
1.087033605348789
1.066041634844453
1.067534152815096
1.085005797963388
1.139641709085552
1.12817704024747
1.131359376373898
1.098428580323843
1.101110755183773
1.096097751211695
1.103570356723522
1.25198724455888
1.274549496605988
1.274253780092767
1.252272498867746
1.200698603617954
1.199908216291462
1.226795045799262
1.225944057561859
1.251401090719781
1.272695161316522
1.273642245599004
1.250497860090744
1.224224631618991
1.24161385442868
1.199959371830541
1.215837230082121
1.242490612665392
1.223389751539014
1.200726769531767
1.182644899144101
1.166071016759201
1.166290775220868
1.204405249502941
1.184524714585505
1.18428900247195
1.204659590516004
1.181435401813514
1.164958388888655
1.165628344193852
1.203889518662509
1.183091346928556
1.203103884144818
1.183813108210076
1.224770995173805
1.24334295398429
1.216366920418514
1.201481215412176
1.243062765307207
1.201231706373299
1.225039458821017
1.197477492824373
1.198836718666585
1.223313761853139
1.22478635380814
1.245770406885047
1.265296280465822
1.243490102579464
1.267709028270535
1.247691709445232
1.271397524758603
1.24926457276509
1.269738763214657
1.220818740480679
1.240421653278706
1.198922841154135
1.212557504016936
1.222257007749875
1.238905282203234
1.197611216602836
1.175917095586463
1.159926035150031
1.16154454847559
1.199055919591804
1.177641220407133
1.197121066026785
1.179398394570108
1.180451003922069
1.164056922743259
1.162920196296316
1.200693417681767
1.182118244524525
1.202040656626517
1.180888901490431
1.219067440648292
1.234864128304281
1.210876702582793
1.194137537830405
1.216994381231935
1.237056155763465
1.196018427155894
1.313641269265681
1.320681964371512
1.315461906935613
1.318843585639013
1.301232493935694
1.283938391606114
1.286459835815586
1.298628005900442
1.303419435849885
1.290308034594506
1.305203282367531
1.288578610596439
1.266380339877779
1.255871075658133
1.225218544158387
1.236626247584853
1.268010289989989
1.254290495119467
1.235141108160286
1.272669972053295
1.274446763458981
1.237929033054114
1.243570009216597
1.240116518991386
1.270255063149779
1.276886892101098
1.264389323898294
1.25007130075559
1.223465420372063
1.231190416956419
1.252361024936624
1.233332556225627
1.262024861504033
1.274702559425388
1.280620047109741
1.24347801932552
1.245434850901382
1.276365959228789
1.241962575573526
1.278940140851565
1.188763426699212
1.181158072960617
1.211000758657203
1.203496812109236
1.211791501583525
1.181858343047327
1.188042399949207
1.193980831033764
1.196634158743791
1.220917195502265
1.218279064619744
1.218015979072035
1.196390297769813
1.194222096389472
1.169342175256433
1.152287324763319
1.147211835492537
1.163757940327077
1.152090663284162
1.163547967237096
1.169558224043014
1.172863271688834
1.156707855559828
1.15441480550491
1.174196891757226
1.155020969462001
1.17219494138076
1.174871706890714
1.168907834252366
1.162488962237807
1.146828104835663
1.151101117851667
1.151695926630296
1.163125902389028
1.168252237071177
1.193494811281617
1.21667789589052
1.220380089834786
1.195156838269255
1.217484453296191
1.192759560994451
1.195899359764571
1.189240018311069
1.204002841046108
1.212570238403358
1.182551134317555
1.21231251175271
1.182321323986639
1.189476539106833
1.162463806458325
1.179599587715548
1.172326697659183
1.192882943822892
1.180301930536114
1.173000099258405
1.161822995615528
1.138186452561408
1.151258790159805
1.151460882234253
1.150962124058372
1.166805724122743
1.166588755512777
1.151160966332309
1.147206561611239
1.13357587388646
1.140924267157978
1.156299237813414
1.133400309534638
1.156097083326549
1.147399248612222
1.12577888159217
1.114677716773568
1.125268066022446
1.136760180570299
1.124006709220369
1.124506189880003
1.136210990646308
1.150239134533157
1.15085251875454
1.137069295669612
1.150562537601407
1.165491335245667
1.166151904794748
1.149959620895632
1.146819621130644
1.155078172265254
1.140554818104037
1.132518118253562
1.13304819067795
1.15569089578862
1.146236290986001
1.162888070913138
1.19336985547684
1.180995749119963
1.173666819045822
1.180765742672903
1.173445566704584
1.163098979306271
1.159878320804642
1.178653958145182
1.18989256299237
1.171421420530828
1.177460523610618
1.160962276621186
1.170280311997328
1.134238116079578
1.145658148569428
1.147127932541701
1.146904144744662
1.160536068475168
1.162129450778681
1.1454609753056
1.113277141615591
1.114056047053472
1.124584535136609
1.134551469586208
1.12333855883273
1.122500574880708
1.135475355133208
1.143284398426121
1.128586336039539
1.150504404166614
1.137187824436308
1.129844352203769
1.151972514873799
1.141891405885704
1.149415699969321
1.148379517915891
1.136318543747239
1.148133080293251
1.164603177438712
1.163483790295914
1.149150675160595
1.158567619373587
1.188367710330321
1.174310813232934
1.16727311273497
1.176014574210172
1.168899131810538
1.157026293673183
1.144471110982642
1.154256148836227
1.131808533856092
1.138316963477379
1.130917835533796
1.145454243005042
1.153221959361959
1.18584799530673
1.200383765190363
1.180216112916088
1.209933705590094
1.208583914046955
1.18707221499975
1.179027986380403
1.18900771287334
1.189564154135667
1.210561427155444
1.215385240183022
1.212539206042466
1.187222382276527
1.191367720273707
1.170167234085776
1.15424414335404
1.153602262475246
1.173290783257952
1.152580592016058
1.171297536363917
1.17214943958964
1.164922931160358
1.146670498267144
1.157726815859197
1.143326831285016
1.148091592539382
1.159256769410265
1.163345549784017
1.184364380722723
1.198794037335821
1.205007259311903
1.175893114205362
1.206944448009582
1.177588830094677
1.182615230920959
1.16626358482646
1.161634034001637
1.150303890122233
1.144501776316983
1.149301667370859
1.167372021761801
1.160557834497165
1.190521447059858
1.215589460019346
1.21707533254087
1.194157702542926
1.214212356422094
1.191770157980672
1.192896634523862
1.292086939939235
1.280997060616658
1.277614548861639
1.295587246866573
1.297979601492791
1.298339615565237
1.293362985725058
1.303011389072174
1.288099361713485
1.269421443601133
1.273765650486439
1.283592452116039
1.252522128063564
1.236989554309645
1.213114157267291
1.219013053916661
1.2408868805366
1.248480370777204
1.222630664036394
1.264209958169995
1.271603060311713
1.235387156661247
1.235847293614154
1.267441586034008
1.23247571736891
1.268335641954607
1.25611117197834
1.247407301093808
1.216228340766928
1.228702507463785
1.244352265454516
1.259271621167197
1.225854610625985
1.260537369835352
1.260432393238965
1.225473515541868
1.232511633172533
1.256397969592862
1.229177499190054
1.264620990894644
1.2595873890954
1.246398067470215
1.266572632113314
1.253076794547623
1.238312638928328
1.209224349112678
1.206187629018427
1.24088185186422
1.214834869039741
1.211720599443941
1.244714426984565
1.200229941270351
1.19158150106781
1.216596780902182
1.233364673661482
1.196735051540284
1.222465152289951
1.205609337136495
1.282362634208492
1.29308382470803
1.288171857513157
1.287198856151277
1.272871294996454
1.264549472883219
1.278529895574317
1.259114040071017
1.238930640584196
1.201450649607672
1.232636788965217
1.214983041135807
1.24395936068352
1.227803746267077
1.210521395642707
1.246601917219103
1.219947722283417
1.255740179013264
1.221343411947178
1.251763132190669
1.216766083028431
1.25051216558959
1.16638583798079
1.18889758995868
1.171045262555664
1.194153517925077
1.169814707490907
1.153208267647381
1.137784245260614
1.155380221823414
1.141461726030198
1.174463255275154
1.157321231239768
1.180576889053642
1.203105073655428
1.16763147369342
1.192423658176664
1.185438343899831
1.208631337768459
1.172142768355107
1.175346489938684
1.179289554087489
1.198970686555403
1.203359681801246
1.221362761187444
1.246834841475656
1.226155350298978
1.241690457822474
1.197111579333085
1.189899290114229
1.218253188123761
1.180100115489104
1.201382811881302
1.213674688703941
1.176297483530935
1.162745376096031
1.148041274597908
1.14488240933299
1.178745022894504
1.164622740442569
1.182663851561954
1.16112617963651
1.162170113760215
1.18483777343871
1.182355528620798
1.166424213800161
1.189754052134109
1.187205635831885
1.168524341756979
1.127341870777278
1.123265452389576
1.136735623846205
1.145246099333949
1.126354033663532
1.130547272976114
1.140238967489987
1.177481242733541
1.170392323443331
1.152297988169098
1.162295396854885
1.174919335770164
1.182200475943376
1.156277934070974
1.166117582210018
1.179083236168391
1.163332280128105
1.190488077838173
1.186533238647677
1.159955538518782
1.169621939586455
1.152133290009898
1.137958502764055
1.139284539879527
1.157136390762848
1.136466832377389
1.155313527140893
1.153918395320197
1.148619870982376
1.129229617638867
1.146485018649149
1.136281717135361
1.133528132425313
1.143489271293257
1.151725443331893
1.170344772440482
1.194259670715527
1.195708458535268
1.176129590343354
1.19165321866052
1.173935861289005
1.172494653873274
1.115073456734277
1.138679644949876
1.125790296269764
1.11798808717773
1.129062186737238
1.129136980752678
1.142322005932595
1.12304580498425
1.118019843135325
1.13048583003175
1.126156863792493
1.120957431436577
1.114510950689827
1.133810797437695
1.161344488375378
1.150654897333136
1.144803941694199
1.139431796817794
1.165623125378052
1.154635899767903
1.148573250855164
1.142697392166312
1.16956836660107
1.161702491815094
1.155274999735489
1.158318345772029
1.152063723797607
1.145709351871646
1.101365321332864
1.103399272285493
1.112781027079906
1.12017833316015
1.111798812873871
1.109578124069568
1.122663653969653
1.134942087091197
1.132114762368026
1.123246013487475
1.132145700241294
1.148823726763544
1.145704342959013
1.134929305532162
1.129055290084143
1.123696729181483
1.139754682149483
1.119475992193367
1.117086332679472
1.136901304852019
1.131737164571951
1.150975187570892
1.179450400755981
1.16479148162786
1.158209364754502
1.167590377818573
1.148467913073483
1.160870908171308
1.129642930405901
1.14396724597287
1.142052354473822
1.141919653654062
1.158699147005035
1.156613940267472
1.14380050548556
1.116795091990494
1.105281509464145
1.114876069785288
1.127043192486583
1.113848658302547
1.11572542640339
1.124952390357753
1.138475158631729
1.127142034491459
1.148813928775079
1.13261903327662
1.125509830998366
1.140289279148713
1.146897249994844
1.153234542566606
1.182118562990271
1.172343261143111
1.165396929695811
1.170105388549088
1.155250092894206
1.163264836801436
1.13754109356409
1.139910927491766
1.125579098290487
1.139815564208883
1.151680154279952
1.154275723727503
1.137485916518022
1.136446397727092
1.14237063629529
1.121677118808521
1.130694654967481
1.123688435494239
1.134200840724398
1.144750612611833
1.175701289896723
1.189470516131285
1.166412283124812
1.194076034111487
1.197309418206939
1.172814090929297
1.169201387704621
1.182806096632632
1.187478163303267
1.208268996039735
1.208423378957337
1.185157952191485
1.205650489723255
1.18510110872104
1.160853562157182
1.145795491423993
1.1418674050003
1.160075066037839
1.144217041057852
1.15821883822001
1.162739113649562
1.159460223768983
1.145034971634556
1.155963547710153
1.138564942013091
1.143181501179415
1.161526434303461
1.153962279587047
1.178291650993324
1.192265032917642
1.202762967178907
1.173934589630983
1.180593559811676
1.200200920655721
1.17170641390753
1.157141430782056
1.14922713899763
1.138807522536779
1.136555505232143
1.141106688833346
1.154564747584968
1.151718293433835
1.180157894440989
1.19938392076184
1.205433038735259
1.179436360239032
1.20269329410461
1.177204154772917
1.182423707916687
1.099230676641328
1.098710052596978
1.159706728216456
1.160365504977716
1.093620436305898
1.093921877973296
1.092528607193565
1.15701075249034
1.155641139950197
1.092563425841165
1.086587741096222
1.10517855359412
1.12400143260888
1.124342539138956
1.081715101138896
1.078250920610659
1.07349624389961
1.086546092973855
1.112267076047809
1.121939097934887
1.119687816338063
1.084615239174724
1.071996206393163
1.082955922730723
1.073094391726585
1.121821902747886
1.139135719288845
1.082571288884951
1.094622734037237
1.112352930754963
1.108709543129019
1.100303759049093
1.073456271064945
1.075830745118365
1.080444603680353
1.066513141500537
1.152175252903177
1.160790835818023
1.147717692856304
1.085860335080724
1.087325409041413
1.118297009707549
1.114984445608072
1.097747173009828
1.074781296336049
1.073400959883907
1.081944314661027
1.06763480267835
1.069433965071019
1.085667991990508
1.070556286012424
1.0524669154275
1.067132717919741
1.050608457301984
1.063063914253985
1.064484287394354
1.044187651436837
1.049424364324187
1.043479515630354
1.056785526625234
1.049560417863372
1.047848924252678
1.070568005823819
1.073443285862887
1.090272140368238
1.054125959797929
1.062341917099695
1.061528996527039
1.055558917646045
1.05279977499126
1.065510830415147
1.068117260978243
1.046590393665047
1.042910327274312
1.04820352435531
1.049414062235741
1.076953110590288
1.076364769474561
1.097016316328976
1.058309577227608
1.069947312428032
1.069483728142774
1.058670008440182
1.070771828650672
1.057148249673459
1.049008177758837
1.045897649826917
1.056744435458825
1.051738161185644
1.052042870930873
1.074218449484358
1.075973135874231
1.095456823861606
1.057665039464654
1.063745333810196
1.069114152734877
1.056744159682265
1.068820938729332
1.070415550619711
1.045130467908351
1.045692036392865
1.056476271096164
1.051193404972853
1.050832955342623
1.260733058180913
1.265254371901718
1.251952320028562
1.256329711886641
1.251868924529064
1.239039542071877
1.243375029220049
1.23096886886992
1.231274378853568
1.203099179630652
1.200151530978802
1.220057282617446
1.196449034685302
1.193603429443131
1.223572964262126
1.194370197520823
1.185980710542992
1.210177852530238
1.213168976935985