/*--------------------------------*- C++ -*----------------------------------*\
  =========                 |
  \\      /  F ield         | OpenFOAM: The Open Source CFD Toolbox
   \\    /   O peration     | Website:  https://openfoam.org
    \\  /    A nd           | Version:  7
     \\/     M anipulation  |
\*---------------------------------------------------------------------------*/
FoamFile
{
    version     2.0;
    format      ascii;
    class       volScalarField;
    location    "0";
    object      p;
}
// * * * * * * * * * * * * * * * * * * * * * * * * * * * * * * * * * * * * * //

dimensions      [0 2 -2 0 0 0 0];

internalField   nonuniform List<scalar> 
12687
(
-0.0008919676773904349
-0.000731461945714232
-0.0006176392013822549
-0.0005349753392047247
-0.0004743147027111724
-0.0004298532994326881
-0.0003977763792397265
-0.0003755563751681544
-0.0003615540364051262
-0.0003547842516957504
-0.001632562045229405
-0.00116779285817621
-0.003189771786648292
-0.001753583709831198
-0.07275332101977577
-0.03135184824616268
-0.01498496671732895
-0.007957514140511757
-0.003521395334518503
-0.08851517767484086
-0.1755817694842841
-0.1898135439360961
-0.1283295847849609
-0.1233283280225195
-0.1825426585977455
-0.1582843443646469
-0.1076057749637288
-0.1219131172940628
-0.1804483555781677
-0.002931441643270508
-0.003251539136304259
-0.002985337710739891
-0.00242141384607861
-0.002261371861908543
-0.002459310858239214
-0.002295404501788741
-0.001654430627206389
-0.001772827069753528
-0.001675736873092507
-0.002223233357700149
-0.002085190826261773
-0.002255616002208265
-0.002114605947151999
-0.2330505407677342
-0.2589227374062246
-0.2568939251078137
-0.2349220355520026
-0.05140378096270356
-0.07205265766516375
-0.04837372482745212
-0.03482109733680071
-0.02008089333242781
-0.03844307833287231
-0.02164506795811459
-0.01883444824231076
-0.03443136962848079
-0.0202462440596994
-0.01629172538130791
-0.01184631017827921
-0.01738249761678789
-0.0125135711319189
-0.0110873229637139
-0.015938138654298
-0.01169835751810326
-0.009134010591322099
-0.007620196273362939
-0.009497225931693639
-0.007894261285578767
-0.006751897549660074
-0.008246934049900716
-0.006975584863953582
-0.00544946121121632
-0.004807723731416181
-0.005603431540643623
-0.00493387838745172
-0.00321518504900169
-0.003594696604007945
-0.003278489106852188
-0.004853424651953859
-0.00432526125315449
-0.004980094993417479
-0.004430653691427029
-0.1595717528869814
-0.1995681873311713
-0.1577280041024483
-0.2088582585529332
-0.1531687198914466
-0.1467037583672665
-0.07249188140059099
-0.101878711717181
-0.1151585382806674
-0.09900932083244629
-0.0763855749724263
-0.1669377260974379
-0.1211362108402656
-0.1037266299635847
-0.09555164011266655
-0.1164752349377435
-0.1000474013368813
-0.07714664390402964
-0.1688654759900064
-0.2179610715694097
-0.166397735249373
-0.1656857553874812
-0.219734010422595
-0.2167637595587053
-0.1613483116801624
-0.1627980663052175
-0.2113078507524724
-0.2317854351663226
-0.2492449789094659
-0.2260087168883895
-0.2555227477102412
-0.2168446940743284
-0.2398059017318853
-0.1752553005101939
-0.188265994138809
-0.1738171292699213
-0.2378975757810276
-0.2186089687836164
-0.2035026502721917
-0.1432272494839791
-0.1659883249027403
-0.1277916593544001
-0.1428197254456041
-0.164620210561028
-0.2051759864567824
-0.2023765561018562
-0.1377227528868541
-0.1329095532110773
-0.1595808368216339
-0.1403697183309537
-0.1972604083838547
-0.163705668170852
-0.2156563224127324
-0.2307453087555185
-0.1872302066113738
-0.1685100960830229
-0.2102469702180614
-0.1728551482316038
-0.2366118886950864
-0.2135090612297704
-0.2464094385784045
-0.2234086369965025
-0.2355526569275816
-0.2282332570076841
-0.2205963993512017
-0.2094891908449868
-0.2311152406780029
-0.1380273748448766
-0.1780671468313302
-0.1958130618305582
-0.1446737557150712
-0.1845518441425801
-0.1639575229378135
-0.1766814353500179
-0.1948779312121472
-0.1693818343623787
-0.1563907027353095
-0.2139278143668201
-0.1341451847092274
-0.1294572027466217
-0.1474616080913048
-0.1828153782610513
-0.1187137882784535
-0.1251800922390012
-0.1481282469114636
-0.1863050147018222
-0.1361012637570344
-0.1185836039126727
-0.1577456441898303
-0.1949688158154566
-0.1322793709949283
-0.1508699769765468
-0.1986044344194016
-0.2281030892412081
-0.172552433584702
-0.1665735745934092
-0.2078184931927229
-0.1592995669879962
-0.2180269007484229
-0.1135494389450985
-0.1091172109761826
-0.09546568321052511
-0.1078707662197866
-0.09106204725151718
-0.06715238531455203
-0.1026512059026755
-0.07068316424130318
-0.1079611392238709
-0.08718158636616977
-0.103815844008563
-0.07137499911488845
-0.2215788897266721
-0.2142111594280551
-0.1344548538748773
-0.1731500329239046
-0.1540778678500441
-0.1595391149100397
-0.1794271413960989
-0.17181903037169
-0.126176174493109
-0.1050180214288977
-0.1306845767341114
-0.143565005125608
-0.001530143736296657
-0.001646469681659565
-0.001550346734699869
-0.001323909266860521
-0.001330614191295907
-0.001367855791709203
-0.001373689269006742
-0.002887808150393328
-0.003145544788824006
-0.003220282565087133
-0.002899933829654495
-0.003175380619101668
-0.002862506058370409
-0.002925767606422924
-0.001884695827021623
-0.001736097413813342
-0.001763135308822019
-0.001891592631026844
-0.001746216548553037
-0.001873005900894507
-0.001903203222628992
-0.2946629794754877
-0.3002877647149232
-0.2999173990911954
-0.295026845698168
-0.07525506733953261
-0.09657835327058165
-0.09321329522825442
-0.05156421581858849
-0.06204395337866484
-0.0604283112253012
-0.0528883094236644
-0.0224809819007649
-0.02976852315289662
-0.03328794226783958
-0.02527001690881299
-0.02991630511169439
-0.0245190770243784
-0.02452261222745204
-0.01211603159796277
-0.01452416013862743
-0.0155871550917401
-0.01228286359215416
-0.01462101233697846
-0.01184299009126142
-0.01257122590403151
-0.006915720120264233
-0.007745313415304504
-0.008099920523311635
-0.006975194599604757
-0.00788193433879689
-0.006805463198053743
-0.007089738600497174
-0.00388178808190447
-0.003468843410251417
-0.00355759508957227
-0.003902525080983384
-0.003504183653716864
-0.00383971730094268
-0.003945696481546085
-0.1643494022979708
-0.162081618829609
-0.1886167310577854
-0.1912014764642128
-0.1091157852708709
-0.1017160546773255
-0.08621438011943873
-0.09366430270023465
-0.0887768464243137
-0.0988110975680265
-0.1160863385511594
-0.1627340568313597
-0.1741484683960623
-0.1614000180710415
-0.1294970721233654
-0.1394181120698934
-0.1382954414780628
-0.1305466812602444
-0.1734069125591715
-0.1731627370046475
-0.2011370704999297
-0.2014089166601665
-0.1681399632383546
-0.1663700768885905
-0.1954957545401438
-0.1934945714669954
-0.2870400650661993
-0.2893994198129811
-0.2842939787853958
-0.2921865383810762
-0.2021507873178022
-0.2052395912987178
-0.1873313078624594
-0.18955627472457
-0.1870771624323631
-0.2049630565935416
-0.2024238533954759
-0.1281503469446351
-0.1355909536475458
-0.1357821891976971
-0.1512026300510835
-0.1422198194709603
-0.1420224980752241
-0.1514135983224716
-0.1304305766723988
-0.1317635291628813
-0.1245724268718027
-0.1469656680880365
-0.1366929759397379
-0.138071827024806
-0.1454838938522948
-0.1966247662929031
-0.1973896658110465
-0.1843700520079349
-0.1801497720703961
-0.1819542060947393
-0.1946725440697655
-0.1993672943775003
-0.2775036424483129
-0.2861761138896191
-0.2811194961620023
-0.2825028753391833
-0.2455306677375984
-0.2499328183220692
-0.2521902935437422
-0.2567310778253639
-0.1888304190588754
-0.2080908430183817
-0.1937451437358277
-0.2135903498426173
-0.1708827015781036
-0.1685523817073812
-0.1562338037858615
-0.1728412566464346
-0.1622428261799906
-0.160131744917617
-0.1752410554020301
-0.1190309041695561
-0.1264119304400542
-0.1135376229947906
-0.1161952962738724
-0.1100755158682523
-0.1294497689886595
-0.1218347638181889
-0.1289133879299983
-0.1203301678302607
-0.1272153532328538
-0.1418963998077488
-0.1351212427282229
-0.1333590865703206
-0.1437934078140518
-0.1899022513104842
-0.1951199185325335
-0.1780857821679142
-0.1780822657818439
-0.1757505505037668
-0.1924325336591172
-0.1925552790242311
-0.002812920976229675
-0.003058411830850357
-0.002958058054693715
-0.002680846015855662
-0.003086928903619487
-0.002788660315750437
-0.002703600288015783
-0.002904964706980534
-0.003240980341571754
-0.003205947895971243
-0.002952224323788941
-0.003195620630475492
-0.002943284242796098
-0.002913722801201661
-0.002829372167419981
-0.002976114746777992
-0.003116149419056471
-0.002726916984641635
-0.003106274527831877
-0.002719031126908554
-0.00283777375947621
-0.002635242675831975
-0.002645551528796232
-0.002394140978259764
-0.002440138087827793
-0.002412540851316699
-0.002613701503281687
-0.002667510898648774
-0.002571505006763461
-0.002458795396756205
-0.002340236459528264
-0.002278174518068851
-0.002357990603033228
-0.002550786495756669
-0.002478317573064849
-0.002649844322224441
-0.002689996016005687
-0.002452826631712084
-0.002431386147666875
-0.00242501149880475
-0.002682395097640871
-0.002657302632217077
-0.002585550575402585
-0.002498323349452036
-0.002289570277450132
-0.002376183214928155
-0.002370026928794601
-0.002491554130605782
-0.002592728213720787
-0.001848329651968271
-0.001702571646756504
-0.001664479965014074
-0.001784704442535714
-0.001712907769203967
-0.001836754176462999
-0.001795722614644874
-0.001892586302385757
-0.00176955196908539
-0.001756294833551335
-0.001915055688392257
-0.001752905629682164
-0.001911045459139331
-0.001896619191208472
-0.001856197725828068
-0.001671854576731159
-0.001723493444122582
-0.001807378848489876
-0.001719910524178064
-0.001803388929439425
-0.001860236588798559
-0.002040430076704287
-0.002047527595712229
-0.002199679022123817
-0.002239232177901325
-0.002215440908874622
-0.002026886008845994
-0.002061199090526663
-0.001999475941638942
-0.001927245178211628
-0.002153160613089585
-0.002099696707721902
-0.002168428942701773
-0.001986269070358033
-0.001939820601992011
-0.002049607845800386
-0.002075193990046896
-0.002250072148364492
-0.002231590333974777
-0.002226124374702517
-0.002070456881113834
-0.00205430623068875
-0.002008446438074993
-0.001952839737607463
-0.002109550438880832
-0.002184090232784655
-0.002178786074305974
-0.001948411379615682
-0.002013047939829535
-0.2843433169134467
-0.2696351146590188
-0.2692983007104586
-0.2846958142015601
-0.2939258422372615
-0.2980322083805771
-0.2928039019878134
-0.299169546852597
-0.2836273675757105
-0.2675683002600718
-0.2686129723632851
-0.2825367612818082
-0.2643381644720814
-0.2500332259548341
-0.2447875086269664
-0.2339917524260572
-0.2510277882221775
-0.2633015252247222
-0.2457673802684322
-0.2741550556304215
-0.2791500719945606
-0.2585878879639383
-0.2548183777209609
-0.2544884244845354
-0.2787968121178593
-0.2745027044889456
-0.2734527161481383
-0.2770047028855362
-0.252816952707974
-0.2579136439305587
-0.2723872966261014
-0.2538232719064254
-0.2780845581694409
-0.2650212190477579
-0.2520066242996732
-0.2346137890225286
-0.2467358758938868
-0.2516830204421746
-0.2464149145971583
-0.2653588210391043
-0.05163158271569895
-0.02746211457204203
-0.02699192088289867
-0.04621506452213357
-0.02872401399164703
-0.02845922617247545
-0.04737738679333222
-0.07602171013503695
-0.08270996040814947
-0.09226531678046004
-0.05068700529254665
-0.06038448329102601
-0.05711596662061584
-0.05937205742314391
-0.04776666502427147
-0.02517271327695655
-0.02613711747076203
-0.04548885437979144
-0.0268860930681658
-0.02737975898177972
-0.04027705592351272
-0.04538338841724764
-0.04338876669528848
-0.03293517504763936
-0.03709701582847745
-0.03307135391932144
-0.04066752830735581
-0.05247501112032034
-0.04108708660283206
-0.02267884085242249
-0.02617610224652411
-0.02078279626329794
-0.0305834508118241
-0.02352606897171856
-0.0310809789058446
-0.04611349527073727
-0.05471711275823082
-0.03762791987558048
-0.03421886131991192
-0.0335238483674746
-0.05335995602658771
-0.04723516308468124
-0.04172011940328774
-0.02450089110998087
-0.02146725750296866
-0.03161043385014688
-0.03098834862325085
-0.02435708555059226
-0.04270078174355275
-0.02119660163926472
-0.0240523760300141
-0.01946896573749783
-0.01678769468769431
-0.02782191585494875
-0.01702824573991095
-0.02037609608786131
-0.02273038698618247
-0.03373901782801083
-0.03090057186827665
-0.02523859250645276
-0.0303045436361606
-0.02480527187591462
-0.02311274872855772
-0.02142538066288433
-0.02008614424105364
-0.0287089786261656
-0.01765551305828793
-0.02817177391523732
-0.01752652091384688
-0.0217761410846549
-0.02053688589961103
-0.01938898959371535
-0.01576087511741774
-0.01698027702959514
-0.01586735645995195
-0.01867856093842756
-0.02228028253353776
-0.0194362636314321
-0.01352346231933106
-0.01377279337161142
-0.0129894500027214
-0.01515871489392322
-0.01389518435188381
-0.01604216581165827
-0.02075333270033278
-0.02289708477488061
-0.0171391838427288
-0.01623135305480199
-0.01601116246403098
-0.02252384950441986
-0.02108501261309743
-0.01963581326511083
-0.01431562928454128
-0.01243877844432668
-0.01549870690802753
-0.01529303807979584
-0.0142540758454679
-0.01994161088091002
-0.01124523209213148
-0.01279020596818396
-0.01137070607804244
-0.009827261267653377
-0.01400564754919873
-0.01100077916993803
-0.01003242401652453
-0.0123035533103006
-0.01572567362878734
-0.01494015033397067
-0.01287063919586598
-0.01474694886722112
-0.01276938292984857
-0.01239937806479215
-0.01141271995438193
-0.01163114250456625
-0.01430476012283124
-0.01024435656572153
-0.01412365693865546
-0.01017255852490775
-0.01149832083613272
-0.01042769800451045
-0.01055418061915726
-0.008866139947063284
-0.009312586714851006
-0.009036843634225623
-0.01021261627012881
-0.01078009204865409
-0.009750622015072227
-0.008634838669196182
-0.008349419697690362
-0.007755007315475226
-0.008505100416820134
-0.009556036337577985
-0.008801150661070675
-0.01057510642312093
-0.0110140830829756
-0.0094348470398317
-0.009213301760867992
-0.009153685470421349
-0.0109350020541383
-0.01065035275443149
-0.009883803059761623
-0.008972801422722311
-0.007847189817717572
-0.00866595571170794
-0.008611605357834529
-0.008914763278648659
-0.009951783151421062
-0.006577995796145644
-0.007334624806428912
-0.006861985361823304
-0.006006194546507929
-0.007460165601492783
-0.006475972139824285
-0.006096683957460532
-0.00699098763291399
-0.008197278880129631
-0.008022960373690697
-0.007207814885775202
-0.007975324418558537
-0.007167941225612234
-0.007029369465400886
-0.006647627263706879
-0.006937193145925166
-0.007589729319785548
-0.006189930294856699
-0.007545958076909527
-0.00615842324390066
-0.006683144513184372
-0.00610170904695342
-0.006149013355799956
-0.005337971468434307
-0.005525375606213512
-0.005411465164645997
-0.006012023335655646
-0.006241904976550854
-0.005828875306792623
-0.005363544477509071
-0.005120414662461326
-0.004869928512790212
-0.005189233018354045
-0.005745364018839872
-0.005438363275276399
-0.00616285611706216
-0.006337531708743387
-0.005577078467363246
-0.005487029931683029
-0.005461515481381767
-0.00630524375588415
-0.00619403099306212
-0.005885801664083259
-0.005515363805472357
-0.004912274145027337
-0.005259986617981284
-0.005236091914922495
-0.005489349399066002
-0.005914832819953094
-0.003756325922536617
-0.003365477856572248
-0.003246442094959293
-0.003537528741184812
-0.003399142267189646
-0.003716396555514171
-0.003574392293839966
-0.003910362964663514
-0.003582166329995942
-0.003540406116150263
-0.003989969225218598
-0.003528171229349116
-0.003975019681571962
-0.003924933558383611
-0.003783444955970128
-0.003267657320075066
-0.003433650875717623
-0.003612205359402138
-0.003421991912313421
-0.003599427404563676
-0.003797278247890461
-0.004317461874072981
-0.004342633998026571
-0.004761986073543605
-0.00491591163023141
-0.004822627750016627
-0.004267102406947459
-0.004394412801657371
-0.004166683785446393
-0.003904966299371582
-0.004583156678777898
-0.004377252140521089
-0.004640224841724624
-0.004119079653246152
-0.003948639979636154
-0.004351692712180369
-0.004447550921211497
-0.004958425885639259
-0.004884915247572684
-0.004863884046748841
-0.004429609899885257
-0.004369144093346238
-0.004199038998854284
-0.003993465486160709
-0.004412612515573421
-0.00469884111366553
-0.004679045270168314
-0.003978320215938578
-0.004215539839016056
-0.2131987944015087
-0.23815413985622
-0.2160721249416853
-0.2350273933492351
-0.1568266325682319
-0.18574127169096
-0.1825771202210023
-0.2099894519396356
-0.2276364968858068
-0.2315240591568309
-0.2064411928300151
-0.1979884723655121
-0.2134130978686863
-0.2029920105923865
-0.1829639348042751
-0.2170721852973574
-0.194636955363839
-0.1861097601917641
-0.1555635422898433
-0.1506581091052865
-0.1486061239137425
-0.1791934747290997
-0.1719276950687864
-0.1816493215421357
-0.1696091370490436
-0.201023508522619
-0.2233264855455518
-0.2060875335992163
-0.191522354785106
-0.2037437760957191
-0.2203748093189388
-0.1889624031507638
-0.1505497424562608
-0.1438557918575798
-0.1463367504896936
-0.1764634619218395
-0.1642051035153124
-0.1734615570548142
-0.1670340488459496
-0.1361091106182048
-0.1567969025987274
-0.1453535034843495
-0.1170931706288323
-0.1249282144707098
-0.1221532307967924
-0.124966477049037
-0.08617220694176522
-0.06878744981657958
-0.08268362254981536
-0.1046462175110309
-0.0810296088275166
-0.0856300547643349
-0.08782144973671442
-0.1293597923614485
-0.09129450639861515
-0.1063391910422621
-0.09114276796112762
-0.1380636069028206
-0.1120527350536691
-0.106449232843743
-0.09280667358964473
-0.09666849662600242
-0.112063500747465
-0.1469135226492283
-0.1405812408817892
-0.1139867012039942
-0.1188863262788303
-0.1109745278922045
-0.09517265532166584
-0.09378636840238183
-0.1231428875446647
-0.09018921602126294
-0.1156857139656045
-0.1180857347054177
-0.07358609165661212
-0.08756782637473447
-0.0911347297717006
-0.1064147054630738
-0.0904229093834529
-0.08698055185312098
-0.1109035494810941
-0.1596944680921042
-0.1547073867058984
-0.1480192858599959
-0.1191294323420421
-0.1327028418739117
-0.1242796687024765
-0.1271623387523281
-0.1014432291696948
-0.1006375559169635
-0.1206338852937416
-0.1545432689218516
-0.1532729616498707
-0.1238621244696306
-0.1248646517178786
-0.1204741822605811
-0.1292981770071324
-0.09821931481066719
-0.1029320673265418
-0.09747182614920449
-0.1282668730761088
-0.1214398199272248
-0.09480553777197864
-0.07986054037651578
-0.07927184720694827
-0.1154758226364654
-0.0946715500917351
-0.09395454906901995
-0.1163991077484565
-0.09771693508687047
-0.1001026139568233
-0.1186302446462059
-0.1486082741705039
-0.1524250479521958
-0.123195058633975
-0.1202066187522493
-0.1198319157251666
-0.1024044094185218
-0.09476089456315837
-0.1245036187522413
-0.09697562546184245
-0.1169558412199181
-0.1275805652948795
-0.09210383885006594
-0.09431041992538471
-0.07888178988504048
-0.1148619622316023
-0.09135622894176422
-0.09347872811348777
-0.1121153494233066
-0.1731905983708586
-0.1564932808918794
-0.1605090573849123
-0.1287983817230398
-0.1341901656131926
-0.1256653504505683
-0.1375476869954841
-0.2270213643059978
-0.2503069104385158
-0.2499892520367178
-0.2273174036121537
-0.172668966752906
-0.171921280849603
-0.2005857916383668
-0.1997489987393424
-0.2264191315196205
-0.2483562328568364
-0.2493423208379947
-0.2255025941492542
-0.2135739949767297
-0.232989800047324
-0.1999750424250067
-0.2188524455073865
-0.2339303496941634
-0.2126981367521591
-0.2008064384356124
-0.1661616096303057
-0.1586735765205569
-0.1588997633299867
-0.1911213822068764
-0.1811512987774874
-0.1809003627252558
-0.1913837820237936
-0.1649673491544482
-0.1575336709029598
-0.1582187942582261
-0.1905915658840665
-0.1796328855913546
-0.1897901113501816
-0.1803951597303631
-0.2141519712248352
-0.2348564507807734
-0.2194418428994169
-0.2016297134069308
-0.2345502674282998
-0.2013567122063104
-0.2144377277239229
-0.169656332393842
-0.170917165670709
-0.1972050685875468
-0.1986226581461022
-0.2208234104703335
-0.2409114031286894
-0.2186126241500079
-0.243305489786179
-0.222707225649153
-0.2470240901070241
-0.2242662820628673
-0.2453416691394408
-0.2100376386168428
-0.2317232542371112
-0.1988595000118542
-0.2152575604329754
-0.2115201961617709
-0.2301270337907427
-0.1974578598814641
-0.1596574243088394
-0.1524882275186929
-0.1540930703506713
-0.185734100040566
-0.1739880154162799
-0.1838297296646645
-0.1757890843756686
-0.1640047910554522
-0.156617334137132
-0.1554700681127706
-0.1873622199167566
-0.178611568722857
-0.1887140996779781
-0.1773303480276004
-0.2082486583632403
-0.2259325700208322
-0.2134398697156827
-0.1937906720392536
-0.2061514084832666
-0.2281979917629984
-0.1957687027294724
-0.2893683524448194
-0.2964946717389439
-0.2912872637347009
-0.2945486551968564
-0.276936485537068
-0.2596612382247612
-0.2622080332204584
-0.2742713155851162
-0.2791977227171181
-0.2661561501336351
-0.2810624246667983
-0.2643710304967813
-0.2601407689293737
-0.2486930187626565
-0.2301926158916572
-0.2434700157916196
-0.2619042638486869
-0.247002446527998
-0.2418103674275371
-0.266941716769356
-0.2688597463128534
-0.2452711376512605
-0.2517042194780014
-0.2476964373624327
-0.2643549232473607
-0.2714838276368878
-0.2580056175308603
-0.2425519904725235
-0.2282684246864778
-0.2374457930486404
-0.2449571335394505
-0.2398040305720433
-0.2554924592623344
-0.269138057049891
-0.2755491458729359
-0.2514637730993163
-0.2537946891279121
-0.2709511836123713
-0.2497586593935423
-0.2737110666239295
-0.2115529778446407
-0.2015390864807142
-0.2272128145026318
-0.2177305851607508
-0.2281342143108697
-0.2023690112967208
-0.2106905085581264
-0.218413866805105
-0.2219001606216962
-0.239490255784952
-0.2361839529245041
-0.2358726372134439
-0.221604069227879
-0.2187060935998937
-0.1966048387172079
-0.1824341706546566
-0.1750162004934641
-0.1887373247330428
-0.1821861323087776
-0.188480772127843
-0.1968711828629852
-0.2016030676279142
-0.1890408683927117
-0.1858024272648694
-0.2035738450094891
-0.1865679656142504
-0.200778704865899
-0.2044084862750098
-0.1960705492336681
-0.1871917769819416
-0.1745371553889883
-0.1809420351665175
-0.1816891523853285
-0.187966148552698
-0.1952664375964392
-0.2178268842237108
-0.234300588412618
-0.2388555726579712
-0.2201135882080132
-0.2352462512433941
-0.2169422159523808
-0.2210095394610912
-0.2121252329570996
-0.2183174321903336
-0.2290476679460106
-0.2031939213053967
-0.2287444842017907
-0.2029197740889541
-0.2124100695364539
-0.1763993332663426
-0.1875787998505834
-0.1897510937239106
-0.2043426334690165
-0.1883633853804829
-0.1905388531791672
-0.1756625393262172
-0.1434305097469218
-0.1509659425706424
-0.151180985625442
-0.1607974657680124
-0.1709728557588067
-0.1707347076681239
-0.1610221433640285
-0.1654658605081843
-0.1548798810256095
-0.1657608060650743
-0.1782488438117721
-0.1546663707175586
-0.1780049407432475
-0.1656944839316072
-0.1352079281419772
-0.1272536766904629
-0.134633005579278
-0.1507798642908644
-0.1410345121308496
-0.1416274592463249
-0.150144735241455
-0.1498849429224938
-0.1505342612072139
-0.1422074608113802
-0.1603466963183695
-0.1695355363497282
-0.1702562012410369
-0.1596687504427877
-0.165007511694805
-0.17678001463731
-0.1653050370452068
-0.1535965742846168
-0.1542387748626938
-0.1775157914919626
-0.1643184358286145
-0.1768888107609218
-0.2048993325932975
-0.1891425607668715
-0.1913222476277272
-0.1888837813268706
-0.1910618497652588
-0.1771326347670954
-0.1734422185661645
-0.1865279521038312
-0.2009621428715921
-0.1886966426333052
-0.1852094834945289
-0.1746771051137378
-0.1873739783620754
-0.1391464534394661
-0.14511721881788
-0.146632173960132
-0.1562683814265713
-0.1642175634257956
-0.1659121519291437
-0.1546808770381203
-0.1256426950968693
-0.1265369862913161
-0.1338665579563618
-0.1482371079896094
-0.1402438021596087
-0.1392559077463651
-0.1492970482768541
-0.1608614239886178
-0.1488812057634942
-0.171350251288111
-0.161186055985389
-0.1503812637310292
-0.1730821571854894
-0.1592457412782123
-0.1490176598972157
-0.147932967728808
-0.1413905303044747
-0.157629374563337
-0.1685714919209465
-0.1673636442313922
-0.1587629868228998
-0.1719574191279159
-0.1992574450323512
-0.1817660418334573
-0.1839187766396319
-0.1836224473947346
-0.1857817848488118
-0.1702224585866191
-0.1622455626170211
-0.1757963927170047
-0.1527394907157632
-0.162561009140275
-0.1516675912875769
-0.1633978974113549
-0.1745640102981188
-0.2080839688192292
-0.2141625331166807
-0.2004275788145127
-0.2259763984486563
-0.2244214457077525
-0.2095350410527224
-0.199032360837601
-0.2124720301644593
-0.2134515521968125
-0.2272425674356349
-0.2330404618828832
-0.229506843678353
-0.2103660543766607
-0.2155855689206854
-0.1982916733169757
-0.1859320553359861
-0.1847791798945942
-0.202456934338925
-0.1834968871929258
-0.1996755987408346
-0.2010555328220767
-0.1912164971548668
-0.1754291448879953
-0.1814669182471124
-0.1702022458554703
-0.1771881723601316
-0.1832949354364158
-0.1893145117346107
-0.206334626586295
-0.21236046705984
-0.2203411179761357
-0.1953824135524695
-0.2225443677158286
-0.1973513704570358
-0.2042840855451097
-0.1928412206488532
-0.1861560442017633
-0.1799435692309406
-0.171650410373279
-0.1786926366430492
-0.1941905960559671
-0.1848575376965007
-0.2142678086555925
-0.2330314566540764
-0.2349943181725931
-0.2189130630434675
-0.2314349135128671
-0.2157568387474368
-0.2174048319463003
-0.2676897529203838
-0.2567231296388399
-0.2533845800299045
-0.2711928718303996
-0.2734310942941067
-0.2737388712538847
-0.2688842456978878
-0.278363400199366
-0.2637485842357613
-0.2454625821307344
-0.2496350115297109
-0.2593541329430841
-0.2456003869614561
-0.2291939037970889
-0.2171648792253339
-0.2243580292112335
-0.2331103214004902
-0.2414840240801586
-0.22819369747277
-0.257972991574457
-0.2658294665797801
-0.2424756963666679
-0.243188872246665
-0.2613688525124226
-0.2393019427816331
-0.2623818146809433
-0.2492996880300039
-0.2397808184410399
-0.220462680172441
-0.2347294991733866
-0.236636329763818
-0.2525935457633592
-0.2316480756971693
-0.2541552367491566
-0.2541811310094937
-0.2317822667710278
-0.2395734883087035
-0.2499020566663131
-0.2357407505229759
-0.2585038724109333
-0.2368862070216807
-0.2242791349081734
-0.2432749111058572
-0.230276100467583
-0.2321143714272944
-0.2151969755020091
-0.2117770016834856
-0.2343795199268149
-0.2209468381212628
-0.217421918699486
-0.2383811475128029
-0.2050418295887583
-0.1951982932760822
-0.2094432982145665
-0.2265063903522855
-0.2003368687737137
-0.2150102550359634
-0.2104805799250571
-0.258286440319772
-0.2686080144315405
-0.2638432935833078
-0.2629472556766724
-0.2491361634584287
-0.240854394555012
-0.254489455577227
-0.2357968268519069
-0.2319498146873459
-0.2050998443032324
-0.2248777988057039
-0.2201325670194832
-0.2369381325328712
-0.2201527690014742
-0.2155091318127959
-0.24002977060445
-0.2262500966106662
-0.2493977189798394
-0.2274162470498932
-0.2451987349143798
-0.2226325587018239
-0.2441367859258769
-0.1437169881655142
-0.1671336841467943
-0.1472843169890027
-0.1713972345377544
-0.1588349493846865
-0.1504551124153503
-0.1319920286835952
-0.1414396019225059
-0.1352264952529506
-0.1628694808491694
-0.1542426817182543
-0.1825475845286126
-0.195117421559335
-0.1674787245905018
-0.182680135277754
-0.1873021659128771
-0.2002469712005273
-0.1717781493028525
-0.1506696805677502
-0.1538553517535121
-0.1753986578998681
-0.1791277933088394
-0.198319677892508
-0.2233567965357477
-0.2025517181075315
-0.2186771343173133
-0.186981787818142
-0.1917245701876711
-0.2093921904917297
-0.1795253230951639
-0.1909679994852876
-0.2050046853258809
-0.1757955920689449
-0.1477146773075649
-0.1411706314833669
-0.138290466701213
-0.1666582338653491
-0.1611262351736275
-0.1701913782502286
-0.1578029540417469
-0.181902780266099
-0.1993239496497154
-0.1963130555825988
-0.1866144235470798
-0.2045801798655904
-0.2014778270546378
-0.1893432068681364
-0.1521889253472212
-0.1462617684114337
-0.1572294390915102
-0.1681095041093761
-0.1498656387708664
-0.1559675200114342
-0.1611811868731448
-0.1903807645400358
-0.1817055310970317
-0.1690411926695108
-0.1812361143317258
-0.1864279142810643
-0.1953656243745042
-0.1733665367771557
-0.185476414832341
-0.1908193101017666
-0.1811395374928521
-0.2042575156004446
-0.1999911043202547
-0.1774007991221423
-0.1893992658294144
-0.1768418950135776
-0.1659440480973909
-0.1671660725501492
-0.183068443466277
-0.1637779570773064
-0.1805495851894922
-0.1793044323261193
-0.1719864675816682
-0.1532443621709674
-0.1683108232539576
-0.1627953473915254
-0.1595052392646369
-0.1648770452499963
-0.1755830794450815
-0.1909955611380146
-0.2094472668744573
-0.2106719563726181
-0.1979081555793977
-0.2062635199743182
-0.1950441112080422
-0.1937958340463511
-0.1196290456156289
-0.1421849359697842
-0.1258128655914872
-0.1224796364524405
-0.1288575527999016
-0.1374276586193862
-0.1457191432522369
-0.1381914258541979
-0.1386153414526107
-0.148559425885134
-0.1415779583857299
-0.1419940993123844
-0.1325668099117255
-0.1522535198779865
-0.1705479816339501
-0.157242661844131
-0.1592058668140259
-0.1511412218843765
-0.1749337652950073
-0.1612283147750364
-0.1632365537671808
-0.1545934645574408
-0.1790243264591338
-0.1684315246603198
-0.1705069070782936
-0.1649602584129486
-0.1670055893175378
-0.1578105458939133
-0.1124168337359336
-0.1146204892993457
-0.1210830877959892
-0.1323154765404105
-0.1269659408671114
-0.1244827364149253
-0.1349998404570637
-0.1344525251373491
-0.1317414230988328
-0.1277195216772616
-0.1405204417060004
-0.1521531446229936
-0.149045079160416
-0.1434140829586693
-0.1447611268170799
-0.1451676704728173
-0.1589395132540003
-0.1382322537704496
-0.1354946206094152
-0.1557159470828539
-0.1477326926914377
-0.163518255329216
-0.1894930331825974
-0.171637406140355
-0.173736763722504
-0.1745749539048492
-0.1607867974998791
-0.1766931692491919
-0.1342853764037561
-0.1433906999561334
-0.1414560052828771
-0.1508320770015413
-0.1622808102876685
-0.1601033383715995
-0.1528681596859948
-0.1253406799369668