/*--------------------------------*- C++ -*----------------------------------*\
  =========                 |
  \\      /  F ield         | OpenFOAM: The Open Source CFD Toolbox
   \\    /   O peration     | Website:  https://openfoam.org
    \\  /    A nd           | Version:  7
     \\/     M anipulation  |
\*---------------------------------------------------------------------------*/
FoamFile
{
    version     2.0;
    format      ascii;
    class       volScalarField;
    location    "0";
    object      Phi;
}
// * * * * * * * * * * * * * * * * * * * * * * * * * * * * * * * * * * * * * //

dimensions      [0 2 -1 0 0 0 0];

internalField   nonuniform List<scalar> 
12687
(
28.35292879932536
28.35298303972543
28.35302134497636
28.35304868457424
28.35306823976341
28.35308216170898
28.35309191701256
28.35309849858623
28.35310255961193
28.35310449647001
28.84062121849782
28.02759822566292
28.84047999984421
28.84061016031418
28.356629225111
28.92044711856391
28.92130983387418
28.84002405989084
28.84044917101764
28.96011983242047
28.95690962224227
28.95626524751751
28.30784207685108
28.31103338403664
28.95650268532377
28.95731510149731
28.32183778320915
28.311955392526
28.95657127954838
27.8637109897032
28.84047485279776
27.86367481246351
28.84055040708801
27.86420600030251
28.84054733930896
27.86418380257545
27.86463773816637
28.84060862439207
27.86462577342148
28.84056826292343
27.86433348479079
28.84056567600736
27.86431451846607
28.65059067779708
28.95250367917535
28.95258346047271
28.65006649105862
28.01499612167074
28.35699229057307
28.01849560857354
28.92025634408995
27.76070925809764
28.92007994118867
27.75848963037633
27.76307533059257
28.92029867488069
27.76118567792728
28.92124277199389
27.77336110719468
28.92119277950374
27.77268412377284
27.77425725348935
28.92126641989423
27.7736608785958
28.83990880302019
27.85986699558719
28.83987648723961
27.85965367693075
27.86062812792358
28.83999851949237
27.86045824931554
28.84026668943616
27.86225090823617
28.84025337917883
27.86216055204283
27.86349700523374
28.84044301339048
27.86345405818832
28.84032357742177
27.86263636687628
28.8403127009315
27.86256205292666
28.24012608459815
28.55853466021646
28.25356576790883
28.55503355051265
28.25728475977949
28.95784536426613
28.35600400020162
28.32846004488142
28.31963630462762
28.95982306243578
28.35392465003692
28.95718485954243
28.31591924835634
28.95969165378823
28.34001337881747
28.31880520591909
28.95979401232333
28.35352260342029
28.95712326886552
28.55171435109654
28.24685057449653
28.24740264811588
28.55105654972944
28.55214952119918
28.25072363371251
28.24960835969605
28.55413231390284
28.65093584461826
28.95286252424376
28.65250645145365
28.95263370306547
28.65827408747033
28.95366864855612
28.67515698057118
28.95631634252171
28.6755039005276
28.95373997487648
28.6578010995506
28.56124782557739
28.28836618745215
28.58229376536112
28.30818236818251
28.28864217556316
28.58273232103706
28.56065285514562
28.56164249673188
28.29212002360961
28.30055264974046
28.58434779344586
28.29030141938458
28.56343858913034
28.58302442080073
28.65858681271549
28.9539931468563
28.95635007171949
28.67678043215884
28.66000865412884
28.67573474719188
28.95378567695982
28.65599710344717
28.95296700219212
28.65322047574895
28.95337463236031
28.85258185131688
28.75269408455506
28.65715141351794
28.95354446537807
28.27099006999409
28.45926518970176
28.55998838331596
28.26469611297068
28.95598824658252
28.77072017445796
28.76723636953966
28.66417205721204
28.95693885223589
28.67976200430107
28.95460385701329
28.39629722744555
28.50089950951165
28.48786475142185
28.56869117420744
28.31041796666867
28.30128839643225
28.58811729472198
28.56739505197699
28.29325232972141
28.31416331445848
28.58494195860938
28.56425230960583
28.29598133961906
28.5872015759509
28.66314370463209
28.95408740005539
28.95683269504717
28.67725005413341
28.66065296612335
28.67903720692801
28.95445273065879
28.21799258440851
28.22150114688154
28.23333826763291
28.22251401591981
28.24047855675321
28.27045877827596
28.23079898471907
28.26815651019954
28.22670864720205
28.25289120620847
28.2298849557248
28.26771125154257
28.85343040346031
28.75409142990365
28.27457042887405
28.46211404415273
28.95745940259313
28.77153250883258
28.95617658009632
28.76816483328244
28.50237786378864
28.32373324984539
28.39848780851286
28.48977880386402
27.86472014380839
28.84061987743857
27.86471087283214
28.0275117180317
28.02750633124381
28.67801605063989
28.67801444765221
28.51495533923715
28.51488028881134
28.8404774420598
28.8405067486846
28.51487244755728
28.51496195818419
28.84050460066012
28.51524082897453
28.51528248113523
28.84060940887839
28.84059784622146
28.51528005369743
28.51524371933862
28.84059694480824
28.84224917180004
28.94951506134703
28.94953576398904
28.84219620811104
28.35534431409065
28.95993226511666
28.96002460801324
28.41278370418956
28.91873173310268
28.91881451094074
28.41223283066062
28.42616568226495
28.58916047205461
28.92035348339195
28.75569255859417
28.42300541445852
28.59067040346217
28.92082157518418
28.51216105734644
28.59340896339053
28.92128231665291
28.83959657787043
28.42929996751426
28.51223914872451
28.83957029855361
28.51376537427673
28.5135101362335
28.84001145044655
28.84011963758053
28.51347245171876
28.51379554839366
28.84010956426889
28.51466719591869
28.51478651543898
28.84044611291941
28.84041349390091
28.51477718262726
28.51467836279303
28.84040982018192
28.23601821276289
28.23794253571813
28.33400645204512
28.33228014892016
28.6948389319271
28.9596533864072
28.7875110290411
28.95997353238558
28.70031269919708
28.78520820311117
28.95917055896115
28.67949341997156
28.95695546021525
28.67980612744392
28.68979247958277
28.95839853693249
28.95843185367719
28.68956336244772
28.22864852735205
28.2288513429535
28.32586069104201
28.32567797271544
28.23289422283
28.23433951810926
28.32948114013553
28.33077556239438
28.8431773851545
28.94995031901282
28.84350566827562
28.94984124374612
28.86010137928934
28.95552355531845
28.86228237833478
28.95627391641278
28.86230792486514
28.955533354497
28.860072817773
28.3079555336398
28.29879752703845
28.29867229325098
28.39033095808168
28.39854904858562
28.39865014134971
28.39021920224205
28.3021984241514
28.30130990425604
28.31023064961693
28.39256988055966
28.40139042728649
28.40067556261701
28.39336190763376
28.86066287492762
28.95578732446182
28.95644307466057
28.86299239375837
28.86281392360944
28.86086116819582
28.95572110896854
28.84432813939869
28.95007785924571
28.84388811970274
28.95022489953783
28.84842190947311
28.95159503743093
28.84754111309152
28.95130034935191
28.44618545864001
28.54446483884171
28.44322679293797
28.54196608910841
28.95670185031175
28.86359600853092
28.86542208519826
28.86313719232722
28.95718011112159
28.86501850672133
28.9565483707749
28.41103956930236
28.40417895516646
28.31429363575029
28.31228494340572
28.3200587581395
28.40237797217394
28.40944731465609
28.30322064962439
28.31299823672319
28.30437908002843
28.39530717178214
28.40221183672362
28.40314134700682
28.39427352418877
28.86134922111475
28.95586366781457
28.95664903911432
28.86319769705313
28.86343035638333
28.86108968803086
28.95595041102022
28.18941318707872
28.18928886822543
27.86369303164625
27.8638978645901
28.18927586759022
28.18942417975002
27.86388265687884
28.51495087682672
28.84047571762307
28.51486449528363
28.84050242873509
28.51486715688102
28.84050315374755
28.51494863317192
28.18940577499145
27.8636809135604
28.18926267887493
27.86386724228905
28.18926709477635
27.86387240255125
28.18940204592073
28.51502777520344
28.84053004543009
28.5150960984782
28.84054888025734
28.51509133351442
28.51503338393258
28.84052823592157
28.18953335171736
27.8640617367159
28.18964688278705
27.86419496757231
28.18963893669136
28.18954268417913
27.86404880437684
28.51502399657633
28.84052640823812
28.84054785319202
28.51508651304708
28.5150881249507
28.84052701800557
28.51502209767213
28.18952706353651
27.86403570740751
27.8641875383213
28.18963089539689
28.18963358555554
27.86404009053259
28.189523901342
28.18988800987563
28.18995781655338
27.86463187365794
27.86454735604416
28.18995367769929
28.18989289160769
27.86454049504988
28.5152388585052
28.84060888891252
28.51527749337614
28.84059602297652
28.51527836280719
28.84059633181667
28.51523786016934
28.18988469015927
27.86462786136224
28.18994932867822
27.8645335041795
28.1899508079151
27.86453585706391
28.18988300729643
28.5151968461233
28.84058397321811
28.51515137444526
28.84056697551338
28.51514732428199
28.51520027915029
28.8405828921322
28.18981459399599
27.86444657977087
28.18973885658166
27.86432405668084
28.18973208347401
28.18982035758598
27.86443852695815
28.51519452784039
28.84058179762294
28.84056610935331
28.51514322568686
28.51514459642626
28.8405821629978
28.51519336065332
28.18981070494369
27.86443037076802
27.86431771006591
28.18972522861693
28.18972752215317
27.86443310283038
28.18980874595361
28.73572926608757
28.63034231235614
28.63045352081294
28.73564598738944
28.84234694414425
28.94961512928571
28.84248740310753
28.94956923515519
28.7358880389753
28.63098587857554
28.63066911937438
28.73611920325252
28.74372614758675
28.64159252901741
28.75055079624632
28.6503306180314
28.64130524765019
28.74393535272969
28.75036174769443
28.84705885342281
28.95113478130768
28.95251848405372
28.85108482260173
28.85112544177088
28.95115213432586
28.84701269062153
28.84714619392284
28.95122404497984
28.85131840678442
28.95254517172747
28.84727327593312
28.85120361531266
28.9511820012959
28.74358370425599
28.64101154543523
28.65015542526256
28.75016838825927
28.64111085722215
28.7502338408934
28.74351008756394
28.0147411988753
27.67787860931358
27.69070942984339
28.24475240223207
27.73691064800759
27.73750306371539
28.24406983477307
28.61695407560072
28.9603169901037
28.96005076919802
28.41314257992266
28.74947303609587
28.58048535884127
28.91886877596237
28.0192258063959
27.68650921028745
27.68272519246475
28.24518921508209
27.74089328042843
27.73978718000487
28.07585575220265
28.41581417458622
28.91977354595372
28.58822581790593
28.92014511832663
28.42160721494569
28.585867790113
28.91927439176499
28.24849748650811
27.7548689918954
28.09110914574079
27.7597083709569
28.25570044866897
27.75347416611701
28.08638636083868
28.41551722655788
28.9191615320021
28.92011932723754
28.4211673591029
28.42143327356252
28.91922975268487
28.41506206258865
28.24812882275982
27.75188960424987
27.75873891622686
28.25514936580473
28.25548251410337
27.75212127251668
28.24756304301135
28.26141236443588
28.09300169523771
27.76222270695362
27.76663121217998
28.25744793896554
27.76633889280834
28.09608552892048
28.42607535046065
28.92033178913126
28.42263440056957
28.92078812485905
28.42285866690805
28.92080832186136
28.42593748026868
28.26129852324784
27.76139770949407
28.25698231924265
27.76558016377965
28.2572637690947
27.76573513778276
28.26112477159735
28.42696100064333
28.92108354159202
28.59307951827747
28.92121110935483
28.42881819675205
28.59229233461726
28.92093869267505
28.26241349380705
27.77124210973486
28.10108051337092
27.77201041496253
28.2647575171646
27.77083877173491
28.09943741374425
28.42688353228604
28.92091008167366
28.92120383550123
28.42869196409762
28.42876816542319
28.92092735241881
28.42676535714439
28.26231574914419
27.77038467350632
27.77275936751629
28.26459773222552
28.26469418408006
27.77045082189192
28.2621666422922
28.18484043485798
28.10176988282187
27.77398521839337
27.85783210535388
28.26536855828696
28.18496743474026
27.85766083019521
28.51210758917318
28.92127600669202
28.4291900867681
28.83954317634924
28.42925645747917
28.83955230631073
28.51208043444255
28.1847535182364
27.77372668271577
28.26522936820079
27.85748414824527
28.26531342298899
27.85754363527393
28.18470938115498
28.51268923429082
28.83976864294344
28.51316665521288
28.83989286726838
28.5131191328204
28.51274981095282
28.83974829009116
28.18569811783723
27.85894874738181
28.18647574358133
27.85976185384969
28.1863981791909
28.18579676993784
27.85881549849637
28.51264781212281
28.83972732402858
28.83988199285884
28.51307025078753
28.51308669409699
28.83973437661995
28.51262679332547
28.1856306521219
27.85867803808867
27.8596900753149
28.18631838578688
28.18634523147394
27.85872432216726
28.18559641137674
28.1874541977691
28.18703661357761
27.86054428675324
27.86126376997352
28.18697496636641
28.18750366071695
27.8611963128037
28.51374485216004
28.84000286215603
28.51343377686326
28.84009925679024
28.51344677676451
28.84010271553471
28.51373447267837
28.18742055853745
27.86048717440725
28.18691169672998
27.86112723812878
28.18693296685539
27.86115044340485
28.18740354087402
28.51401015225652
28.84019949873815
28.5142360267387
28.84026009824357
28.51421618324153
28.51403452462722
28.84019138201463
28.1878554381454
27.86179835502019
28.18822640244036
27.86220618872474
28.18819375816384
28.18789546464472
27.86174363735579
28.51399360163239
28.84018309307699
28.84025563043229
28.51419593313368
28.51420272638115
28.84018587232803
28.51398523914572
28.18782825803187
27.86168770937287
27.86217586551965
28.18816044160005
28.18817162051975
27.86170648631694
28.18781452116709
28.18893656750188
28.18913371735811
27.86347569728592
27.86325090680795
28.18911826831738
28.18895502413637
27.86322548991716
28.51465964804629
28.84044404926104
28.51476770771558
28.84040609188094
28.51477088020067
28.84040733864217
28.51465584621397
28.18892409149603
27.86346130700387
28.18910257990605
27.86319965062161
28.18910783466574
27.86320830963498
28.18891780447551
28.51453958910592
28.84037202144016
28.5144070327268
28.84031818703776
28.51439075776335
28.51455302801148
28.84036758451515
28.18872605648064
27.86296655511865
28.18850770720921
27.86259956103609
28.18848089049784
28.1887482344489
27.86293606301995
28.51453049648898
28.84036307547581
28.84031453783278
28.51437417390379
28.51437973426863
28.84036458425587
28.51452591345414
28.18871105040218
27.86290502839924
27.86257463277404
28.18845356088263
28.18846272635427
27.86291543256623
28.18870348365116
28.43233093578516
28.53153449250725
28.43082592049468
28.53279711226868
28.24258376121034
28.33596737619923
28.3381771682851
28.43404205215407
28.53585580127331
28.53423372158886
28.43597237138823
28.44846030427663
28.54813739767068
28.55722859745913
28.46229357807149
28.54668035302356
28.45019573925907
28.46073657183679
28.25531059143891
28.26871039781716
28.270289041154
28.35018615949413
28.36263895038054
28.34862253750114
28.36405213763424
28.44691653503496
28.54424358453664
28.55606366482183
28.45811700526003
28.44555460217248
28.54538529535961
28.45934676541939
28.25949935463954
28.27406172835531
28.27207015880121
28.35195704456913
28.36743426291579
28.35394583938747
28.3656480047467
28.68589201674504
28.95751289055701
28.68362230787902
28.69254174192404
28.86957890390834
28.78056079263511
28.95883236384306
28.3453394268901
28.3580192963833
28.43801720155177
28.60705264141831
28.61524606611136
28.61396765469809
28.52450347074379
28.59581829729968
28.34091856675191
28.32540734133682
28.33946226341602
28.592950823896
28.60415732384451
28.51487244468314
28.34001368889042
28.33773998841459
28.3216209019075
28.59011235913596
28.59213505570684
28.60357808884011
28.60212521117108
28.69443056470674
28.95993092136986
28.69927675193363
28.95896151942156
28.7000194352789
28.69340358526033
28.95911105662651
28.35541569191671
28.34452823535635
28.34248443273854
28.60653486007121
28.61265157802595
28.61359512997402
28.60523226201999
28.95741849491175
28.68137842226865
28.68297711872873
28.69208460785418
28.95859865111907
28.69093846985583
28.95876568957281
28.33500317266422
28.33545953758254
28.316227364558
28.58772576173041
28.58812150722434
28.60067167952025
28.60038103903727
28.6923720999202
28.95878151432802
28.69837042670581
28.95971363207783
28.69852241582486
28.9588115138286
28.69216545771351
28.34042617411862
28.3521025116726
28.35240839200976
28.60392328635944
28.61149976558231
28.61169296530001
28.60366100230921
28.33713208869165
28.3357636744314
28.31746127814821
28.58957817737844
28.58838523226089
28.60086536276479
28.60173740616718
28.69250976473773
28.95972829076332
28.69907661389077
28.95892153374695
28.69862356052697
28.69312877743184
28.9588315199079
28.34193659223112
28.3407011506939
28.35261186240908
28.60409801768933
28.6123972730044
28.61182152066919
28.60488358735035
28.95698585638448
28.68095646170735
28.68001439766076
28.689945155583
28.95855411794119
28.69063265827937
28.95845406319862
28.42523393463989
28.52670583166611
28.52684270725381
28.42507324934243
28.229255035809
28.22985808973534
28.32622319428815
28.32676360798086
28.4255511986821
28.5275078739672
28.5271110001422
28.42602270745576
28.44075615155417
28.54058355446452
28.45415166947868
28.55138716571322
28.54022281281451
28.44118543840754
28.45376168560307
28.24703494293505
28.26277181309722
28.26260429343192
28.34277805235212
28.35717929900645
28.35732960838003
28.34261226087269
28.24795280173527
28.26360724507134
28.26310627813899
28.3431078466792
28.35807718826381
28.34360042845679
28.35762913700282
28.44046804602131
28.53985667454877
28.55116748418414
28.45336907915803
28.5399798683099
28.45350049459702
28.4403227018123
28.23167148707698
28.23066194616075
28.32838664609336
28.32748319796321
28.42838825630702
28.53043556410142
28.42951520599194
28.52949112899678
28.42743572200214
28.52803390735082
28.42664943287514
28.52869299008157
28.44247343855489
28.54106257769713
28.45467120474013
28.55269501349352
28.44175672700627
28.54166289445608
28.45532297534203
28.25203993868333
28.2673265715825
28.26613041635451
28.34607849754588
28.3614011055026
28.34725631184038
28.36033179164934
28.2486867324172
28.26427592268981
28.26511543409854
28.34508104182595
28.35867476778575
28.34425691720482
28.35942482489536
28.44334085455577
28.54324729165246
28.55335446664747
28.45704052857686
28.44436544972135
28.54238922136134
28.45611107893422
28.84290016268322
28.94967475659303
28.84267108355079
28.94974971120375
28.73726059493255
28.63330873273854
28.63255987382322
28.73780316506854
28.73680207071617
28.63140405646067
28.73642295707475
28.63192700708134
28.74455633195595
28.64197289797948
28.65136805124126
28.75080109895515
28.74421140858666
28.64244888578339
28.7511141542897
28.84790108540965
28.95153050948376
28.85215801266961
28.95277257876494
28.8518881197385
28.84819909745062
28.95143132875897
28.74497323157802
28.64370450195085
28.65189035422856
28.7519383853016
28.64302448840116
28.75149231380314
28.74546575810991
28.84764893969131
28.95127896007161
28.85146996767567
28.9526965198175
28.84744035475777
28.85165936390919
28.95134774746013
28.76086391816779
28.66487161667185
28.75618754213191
28.65803888237317
28.75601682040627
28.66465906348634
28.76101799328614
28.85755062102713
28.9546657358015
28.95368144123079
28.85455102783831
28.85458701343218
28.95467688962608
28.85751860825012
28.76494726402903
28.76853101243625
28.67521501775361
28.67018089683311
28.76857308420191
28.6702454132618
28.76490038225443
28.86015785463821
28.95629096774881
28.86243447666136
28.95558059605483
28.86235866854147
28.86024201780822
28.95555240029096
28.76504033654896
28.67056571551086
28.67533071857708
28.76878211297018
28.76865684287662
28.67037379103959
28.76517929866783
28.85761351539421
28.85476068904503
28.95370528798961
28.95472949965072
28.85465709950062
28.8577069186642
28.95469819401558
28.76076047684004
28.65788093224767
28.75584338911528
28.6644449001492
28.75590183022768
28.66451664902493
28.76070817123281
28.47461405844103
28.46530102566144
28.5694565648397
28.56095142943086
28.46494722390975
28.56918833883607
28.47493465638265
28.28822807923396
28.27644433877554
28.27629218024309
28.3808201846155
28.36976922988996
28.36990548863399
28.38069673290639
28.48281198103804
28.49005851778467
28.58236704536627
28.57607314828504
28.49014618659726
28.57615444011332
28.48271490578432
28.29904785323378
28.3085225933334
28.29942326452342
28.39055418876884
28.39915506762718
28.39885216382398
28.39088879240763
28.27720388667147
28.27674830416448
28.28905598021153
28.38106663664831
28.3705843029077
28.37017730715953
28.38143588441314
28.48300570776395
28.5765589561757
28.5825132828012
28.49058368040414
28.49032127675819
28.57631646718673
28.48329589057382
28.47439987099312
28.56075285111844
28.46459177708333
28.56891874535076
28.46471061249737
28.56900891150246
28.47429243630284
28.47589834830292
28.465772690438
28.56213724099596
28.56981399220115
28.46636429549226
28.47536222786907
28.57026198094474
28.29113755657895
28.28058235748232
28.27949743377659
28.38329245632307
28.37360082412044
28.37263185874294
28.38416907640325
28.30954558957508
28.30897667883757
28.29992440740646
28.39189507787425
28.39955926511363
28.40006567049835
28.3913353263975
28.48475305647985
28.49251976481451
28.57834916599573
28.58383101467383
28.49190049194202
28.57777570575182
28.48543975646941
28.27781212456647
28.27857545865849
28.28960844234254
28.38254665864835
28.37112734875738
28.37180873915545
28.3819286438311
28.47654534771286
28.56273481958849
28.46792049176764
28.5714382940616
28.46707896307182
28.57080258695922
28.4773060362273
28.48416813610235
28.57688224063535
28.49093373739907
28.58339030220141
28.49137227902878
28.48368297854465
28.57728732593759
28.76147931840679
28.65897853072265
28.6651545642125
28.75641413578604
28.75669772162604
28.76122284926007
28.66550901406904
28.85817320363818
28.95495851427984
28.85552049296357
28.95391177637974
28.85527656235125
28.85839328886803
28.9548850519154
28.86049403743234
28.95639226315027
28.86253541560387
28.95561799184755
28.86266176084906
28.8603539482182
28.95566475172851
28.76587510857497
28.76970483475503
28.67198123437464
28.67637206298323
28.76940965570131
28.67152780903067
28.76620299716914
28.76178869640719
28.65945154660562
28.75744326181428
28.66643961286172
28.75704005816949
28.66593667534663
28.76215254433841
28.76559591246359
28.67082141152097
28.76894901155684
28.67602384444029
28.76915797384096
28.76536428756287
28.67114169636298
28.85798607756793
28.85489789374742
28.95384278476223
28.95477089612115
28.85506947604925
28.85783092347405
28.95482263453228
28.73916127572295
28.63418035879427
28.63518229491801
28.73843486034242
28.84482953507472
28.95058243252308
28.84539657698453
28.95039263144524
28.7399886621428
28.63761182748591
28.63632297694978
28.74092400963304
28.74743925750801
28.64758436721475
28.65496075283741
28.75446786370585
28.64642740823746
28.74827852508317
28.75371645450585
28.84894290276103
28.95164608074427
28.85247099349183
28.95308669854183
28.84854547499067
28.85282912756967
28.951778900823
28.74669415516102
28.64449428478138
28.65403694642569
28.75245547502389
28.64539975037864
28.74603793305175
28.75304695209985
28.84939433076302
28.95210011120745
28.85368991701635
28.95322231380676
28.84990299619778
28.85323464091606
28.95192989240707
28.74590920828892
28.64446907866424
28.7444586041268
28.64247581618849
28.95299662504179
28.95416701292043
28.85605796562455
28.85180817639707
28.95393991460847
28.85537922279724
28.95273776293149
28.75837259290919
28.6613745658546
28.65366143562338
28.75141950462441
28.65983534976681
28.65190894010581
28.75725394967412
28.84674701838665
28.95079583945002
28.84603400454044
28.95103454880234
28.74315027255816
28.63905926368818
28.74197506704305
28.64067660513192
28.75026262484976
28.65842911313693
28.64887826512363
28.75530522819883
28.74921765192596
28.6503171022981
28.75623262716086
28.85110621562536
28.95373262376647
28.95229069367677
28.85419744699024
28.85047239398034
28.85475975353419
28.95250283331706
28.25548372892156
28.34982547593835
28.25176503791222
28.34645877020584
28.36430450854838
28.37663349094086
28.28428366978434
28.26770095617881
28.28137687931977
28.3613325249847
28.37401220365885
28.56529797167839
28.55577353342219
28.47033608393039
28.45665776853591
28.56336440847087
28.55357441343772
28.46804028960025
28.24838636874945
28.24533159185869
28.34340620987473
28.34065130291545
28.44054903690217
28.53767599504442
28.4381362370807
28.5397079747244
28.45428374624616
28.56159626728105
28.54976567308437
28.46402513265665
28.45213329035555
28.55157480468192
28.46593847512585
28.26196593251632
28.27627176491782
28.27870791324159
28.35862228355017
28.36941875731051
28.35616376772494
28.37160910913554
28.86147239511367
28.955152476373
28.8589868098879
28.86095004595526
28.95495331229801
28.85839151771915
28.95581350062815
28.77371954044525
28.68232742037787
28.67821868003962
28.76996291452289
28.68140759291366
28.7730531322496
28.67717424662662
28.76316418079515
28.6678984619818
28.67345515593611
28.76637466742654
28.66654680825323
28.76218262062136
28.6722676061941
28.76557992617418
28.66530541384357
28.67016695914257
28.76045954598023
28.7612816543089
28.67117178571257
28.76485152487271
28.86271235200072
28.95705465947905
28.86429713386055
28.95627554510577
28.86464341845193
28.86232152565972
28.95640626366689
28.76926154338453
28.68055218399154
28.67531559603219
28.77186155805306
28.77243362327087
28.6762064778583
28.76861616082546
28.86046843205333
28.95477055538801
28.85734702113224
28.95550477067398
28.85784528555021
28.86002714692712
28.95565238458505
28.30566168682733
28.38719662939883
28.29574027798801
28.30339117235033
28.29317175040821
28.3942577193271
28.38488496930782
28.49484520511005
28.59135540135476
28.58622258206015
28.49327573326216
28.59019491482834
28.49951406596509
28.58490624815727
28.5733809106889
28.47977215968866
28.58028644730756
28.48608454448228
28.57168108226561
28.47775101546374
28.57879134632018
28.48443933110031
28.57011866973981
28.47419082008937
28.57614405358708
28.47589141360169
28.57741078829647
28.48292855718797
28.3184000478613
28.31686399696873
28.30869426559454
28.40070562557755
28.40659125715058
28.40796391381308
28.39916300885322
28.28863102604669
28.29080261683242
28.29935359712215
28.39237099533219
28.38080614414163
28.38275557907532
28.39063682318096
28.49181958049348
28.58911517224822
28.58256174908052
28.49703152117975
28.49822424287284
28.58368582950749
28.49047745931005
28.48030234280412
28.56622615382589
28.47264542536511
28.57498939567989
28.47125065707619
28.48155043384821
28.57394438987032
28.29453818319436
28.28183507766344
28.28326083417955
28.38632848383457
28.37472026853179
28.37599521447245
28.38517989176837
28.30567613260955
28.31545170735255
28.30711396689331
28.39646524350762
28.40533011280412
28.40418038534961
28.39774992742995
28.48712738433498
28.49323157604275
28.57900965839652
28.58561483764554
28.4940374029752
28.4862304375479
28.57975921424704
28.47918116455368
28.56518005780387
28.46889315075638
28.57217185737369
28.47000157314235
28.47818353428207
28.57300621275041
28.28665341121673
28.28486510641221
28.29758540773082
28.38761851165231
28.37903284877512
28.37743094833589
28.38905354178999
28.48813285759211
28.58153348858544
28.49593639873943
28.58636768379498
28.49493862398765
28.48924895916494
28.58059985657958
28.76358856041281
28.66221686317836
28.66925158309671
28.75971398242071
28.75904232524635
28.76418826267402
28.6684235870674
28.85893671360405
28.95504339805312
28.85580274373457
28.95419506110387
28.85864741734086
28.856124862285
28.95514008930864
28.86164055222236
28.95673612813872
28.86397968173472
28.9561561157518
28.86369087033595
28.86196443185248
28.95604781028401
28.7670097872479
28.77004434398005
28.67250359418355
28.67778204090595
28.77042902322685
28.76658080048452
28.67309657721913
28.76305062668413
28.66138784697461
28.75790967409387
28.66702011038811
28.76257258120951
28.75844180845251
28.66768059788675
28.76749122676077
28.67450107799782
28.77133700500742
28.67837745024087
28.77085967427831
28.76802632866291
28.67376187155621
28.85926233514055
28.85689529881875
28.95431665081887
28.95537040180945
28.85648848135432
28.85962544313787
28.95524896209195
27.84172724258767
27.84257699093841
28.15369316141226
28.15309073723443
27.88419221891598
27.88371624422679
27.87118571159201
28.15610608365283
28.15732604312051
27.88586241892908
27.90712492008041
28.21836663715529
28.19740240787824
28.1970998021024
27.93148636036926
27.94277020824008
27.95473492771579
27.91652484685778
28.21019837322697
28.19922307245279
28.2012178519811
27.91952236321194
27.95701056060271
27.92215271459558
27.95534042399489
28.19333117762092
28.17254422411978
27.90290436983319
28.00101310380814
28.20545145637442
28.2112432965565
28.22100631766837
27.94494518025392
28.0496842804641
28.03969913101324
27.96576401879152
28.16043179051226
28.14654348191867
28.16448799854935
27.89696414892142
27.89443646681802
28.2024589062484
28.20544669441556
28.2249374205361
27.94265897161252
27.95031521749798
27.92378826837714
27.96391222845964
28.25394833242186
28.23713465866225
28.25240130279541
27.99702541425699
28.06640445482001
27.99991016122301
27.97452464539009
28.25877230628868
28.01215008929225
28.2726885828996
28.01317146818936
28.26585567698079
28.00258692715217
28.00517972578153
28.25295136709474
28.25044443128139
28.23297995600179
27.99449889954733
27.9782330488837
27.97948701865773
27.99235512203762
28.26980756518285
28.25787746386812
28.25562149283056
28.00871640546064
28.01459462995252
28.00555537365677
28.00380623500488
28.24742340099904
28.24792735141697
28.22704775970221
27.9883407124235
27.96386107309129
27.96454903926919
27.98782404579468
28.25334747452948
28.2661381184041
28.00534108026532
28.01045408955261
28.26647704568972
28.00050981590452
28.00008353855196
28.24977371004163
28.24826318440734
28.22840611531627
27.98926972569349
27.97610055703999
27.96509982649885
27.99060924280258
28.25501642579992
28.25365138771391
28.01150350887985
28.01073479791239
28.26670246937751
28.00127519536505
28.0017840145005
28.84939488356612
28.9519203482573
28.85046512106519
28.95227802440081
28.74751095983159
28.64666810085331
28.74927193337374
28.64908329274311
28.95328039987599
28.95441439704224
28.85679758110541
28.85435629147167
28.95468237589487
28.85759888453425
28.95358994977088
28.75959106394999
28.66304994916759
28.65558119151445