/*--------------------------------*- C++ -*----------------------------------*\
  =========                 |
  \\      /  F ield         | OpenFOAM: The Open Source CFD Toolbox
   \\    /   O peration     | Website:  https://openfoam.org
    \\  /    A nd           | Version:  7
     \\/     M anipulation  |
\*---------------------------------------------------------------------------*/
FoamFile
{
    version     2.0;
    format      ascii;
    class       surfaceScalarField;
    location    "0";
    object      phi;
}
// * * * * * * * * * * * * * * * * * * * * * * * * * * * * * * * * * * * * * //

dimensions      [0 3 -1 0 0 0 0];

internalField   nonuniform List<scalar> 
36648
(
-6.637902752889046e-05
1.222069986905883e-05
3.603340268995558e-05
1.172035176080777e-05
3.797338184227672e-05
1.796139725111168
-4.687770190613637e-05
1.79598687287929
-3.345801133778402e-05
1.795874711400039
-2.393150563286416e-05
1.79579210132637
-1.703758096317083e-05
1.795731058952299
-1.193847324247074e-05
1.795686132240604
-8.054484474220025e-06
1.795653629448019
-4.969855241456373e-06
1.795631071047843
-2.370313572463577e-06
1.795616837232664
1.795609950458939
3.383232216919339e-06
-2.809168703538864e-07
0.1123073146027913
-3.162347728004342e-06
2.250135756856681e-07
5.622987817511793e-05
-2.424778853676164e-06
-4.67318663872618e-05
-0.449117423571451
0.4491103525411297
9.432026336844525e-06
0.1124094240470583
8.830446169647084e-07
-8.183761597280181e-06
-1.157516949874471e-06
0.1123155082879705
2.594242615995245e-07
3.767475437382524e-06
-3.324357055053417e-07
-3.133537071427723e-05
0.0002376781220589543
0.007379666636885504
2.755039026895507e-05
-0.007399102243132052
-0.0002144575353690242
2.918357629552486e-05
-6.827390971397006e-06
0.02859812112561989
-2.518423948456173e-05
6.152592193265979e-06
1.025873333209046e-05
-2.031232281462545e-06
0.02830260524903585
-9.752058739847226e-06
1.817819413637545e-06
3.526264085998947e-05
0.1127250450722492
4.353260531436285e-06
-2.924182937176232e-05
-5.6306887308687e-06
0.1124311549021559
1.055772006660347e-06
1.09153523482064e-05
-1.382313048007076e-06
-1.507755343548521e-05
-4.696383480252141e-06
0.007451370393966106
1.682502879761918e-05
4.463290155700359e-06
4.919425508168627e-05
0.008004588487419993
-6.436027580319376e-07
-4.295213327775646e-05
5.659627570127145e-05
0.008116164991871047
-7.119416205153985e-07
-0.0006192583753382786
0.007757467090102823
-9.689498888421991e-06
0.0007035224190188006
-0.007832035524184848
-7.95730557664019e-05
-0.0005967448572623719
0.007731539714538612
0.0006791045388099839
6.924760780933771e-05
-0.007803573948126706
-5.924032012279015e-06
-4.730268390236591e-05
5.447296500329051e-05
5.144775807427277e-06
0.008077958772788519
-4.047366258104347e-05
-1.250886952470159e-05
4.677994892451418e-05
0.00793793105750047
1.169362188825463e-05
-0.0005086306262570484
0.007642117403275981
-0.0001638441690077711
-0.007703516625098375
0.0005801240549523291
0.0001537499621358692
-0.0005898295655360382
0.007723765386241534
0.0006714890719891408
-9.002968604079011e-05
-0.007794968262438331
-4.676812770651096e-05
5.388303759566382e-05
-6.717938904047848e-06
0.008066261963059682
6.546817949441975e-05
-0.1124018866326715
6.199805376504782e-06
-5.717404944867309e-05
-8.126786239591567e-06
0.1123955194834956
9.741211762610538e-06
-2.985706401730343e-07
0.1124130996179726
-8.436810482228926e-06
6.753938988117752e-05
-2.10633107052698e-06
-0.1124053348325145
-5.887357334977139e-05
0.11239877737024
-5.462962063035445e-06
6.229614132982442e-06
0.1123592255914811
5.271201092624758e-07
-6.930938862837581e-07
-3.900365938847018e-05
4.413719559450974e-05
-0.1123545903815657
3.808918760973785e-06
-5.007967432746103e-06
0.1123506558940317
-5.610081261645276e-06
6.403825034143343e-06
-1.774120087066564e-07
0.1123614757332643
-3.999230136400305e-05
4.530946129392834e-05
-1.289721780020871e-06
-0.1123567344264522
0.1123527084925069
-2.521186409858295e-05
-0.1123128842050409
2.024651719168283e-06
2.76522544577773e-05
-2.504900845198539e-06
0.1123109240638023
-3.442850175659241e-06
-9.132253355450041e-08
0.1123166999935954
3.855381361708535e-06
-7.208366881174533e-07
-0.1123140845529225
2.822961549977252e-05
0.1123119772812817
-2.540048484269974e-05
-4.806537568510815e-06
0.1123463067365122
4.444629961565285e-07
-5.846478803498536e-07
-3.460121416349495e-05
-0.1123423307373219
3.254942722482958e-06
-4.282498283103775e-06
0.1123389558475569
-4.93238048913067e-06
-1.496075299201647e-07
0.112348226896362
-3.544481203778567e-05
-1.101861846305244e-06
-0.1123441737425583
0.1123407294787668
0.008560783804460651
-2.935245164078276e-05
-0.0005913270952180061
0.0006945429624715876
-0.008656491756868971
2.18445367957122e-05
-8.857475628346265e-05
0.0001035776639954359
-1.053975368046813e-06
0.0087765572417004
-4.294267391626089e-06
-8.759860811208137e-05
0.0001023982241493642
0.00876851919695361
3.194756005830891e-06
0.008567448799089302
-0.0005943970582932288
0.0006976681839392532
-7.212054476915746e-06
-0.008663503366841624
2.200012099053164e-05
0.0003259799317455092
-2.741580678673611e-05
-0.00731927292371988
-0.0002962309049985227
0.007294939582773183
0.0002346979982962805
0.007376279261968556
-3.50547082394055e-05
-0.007395473423647063
-0.0002117844991154317
-6.302386652942356e-05
0.00029842709498743
5.836889322801177e-05
-0.007301273468306201
-0.0002715215234814764
0.007279022870101894
-8.10093105609036e-06
0.02866335719768099
3.400277751137447e-05
7.305400009266327e-06
-0.0003619482222308111
-0.0001020159822536621
0.02845317230848863
9.194264549084739e-05
0.0004152021876076816
-0.02849635293710688
-3.346060620316088e-05
3.923561286675436e-05
-1.140729563963622e-06
0.02872382519118846
-0.0004124257022579465
0.02848361330249519
-1.439581807064829e-05
0.0004759339952863055
-0.02853271926846022
-8.69995387199805e-05
0.02842214086194814
7.834552724314443e-05
-0.0003167368431532049
-0.02845869822958906
-9.58706706704033e-07
0.02864905796650099
-2.869697454878378e-05
0.02844910161777822
-1.224348529910233e-05
-0.0003588316214790194
-0.0284904463715135
-2.332518561474122e-06
0.02832520738829207
1.144464933012565e-05
2.089646499181875e-06
-0.0001370872075611018
-3.15375480468016e-05
0.0282669471671508
0.000152930121417102
2.8298889875039e-05
-0.02827955142283609
-1.126507525460876e-05
1.262452764493625e-05
-3.189932734348721e-07
0.02834249721950324
-0.000149418227418792
0.02827823189466133
-4.342789983610385e-06
0.0001678545194841837
-0.02829232248575779
-2.84375605773264e-05
0.02825141956927669
2.519232267167213e-05
-0.0001227286239831076
-0.02826253291499591
-2.764935319877457e-07
0.02831768769448218
-1.066541647128865e-05
0.02826151070042268
-3.804969876581317e-06
-0.000132906561030681
-0.0282742147212455
4.288173383575408e-05
0.1128038367431774
5.501628603089617e-06
-7.096714160385337e-06
-0.0002328671260455231
0.0002809364553193623
-0.1127577820457422
3.629893318131467e-05
-4.68380466406467e-05
0.112720251829929
-3.733555733247122e-05
4.56362272424003e-05
-1.900749495428493e-06
0.1128259625847594
-0.0002461575339552331
0.000298495021654864
-1.256610881013938e-05
-0.1127771018670832
0.1127373366929732
-0.1126886438568082
2.89451659476736e-05
-0.0001944735892538602
-3.746127374653997e-05
0.112658766427721
-1.499252933329914e-06
0.1127425897172376
-3.082040260062263e-05
-9.986043566213912e-06
-0.1127041663693103
-0.0002046759739915771
0.1126726761855128
-1.740478111470664e-05
2.055687820977204e-05
0.1125582049788871
2.275530777169494e-06
-2.962192029443777e-06
-0.0001179304063601497
0.000138457876164823
-0.1125391587133553
1.54388789466856e-05
-2.010343861131828e-05
0.1125232958032125
-1.814938795197025e-05
2.150391167604025e-05
-7.772184532190559e-07
0.1125674516108308
-0.0001228385031650615
0.000144665399626898
-5.286795570155933e-06
-0.1125475809185694
0.112531044354208
-0.1124221982334142
7.356315318789163e-06
7.529338906315943e-05
-9.631957192723512e-06
0.1124146486655988
-3.57621978320281e-07
0.1124355221972895
1.129607218657789e-05
-2.502567273458273e-06
-0.112426275354931
7.783555640159329e-05
0.1124184839968194
-1.482136390327756e-05
0.1125188070970751
1.86096590939201e-06
-2.426548011260222e-06
-0.0001010205234596407
-0.1125032008292255
1.270677816291145e-05
-1.65720409501815e-05
0.1124901562090077
-1.541200497891564e-05
-6.341682983672588e-07
0.1125263962357579
-0.0001049327544981023
-4.343042549602516e-06
-0.1125101634609926
0.1124966038824553
-0.001333709727770129
0.0001891086610194965
-0.0002129080887827175
-0.008308755195966919
0.008106208315289635
-0.008441753108533841
-0.0001258953869598157
-0.0006849713137668402
0.0008070416882461207
0.0001130689404536601
0.00833250918055866
0.001363408357103484
-0.0001509056602100252
-0.001172954065140437
-0.00823014021349287
0.000131883436188065
0.008058708145553812
7.790585608592134e-05
-0.008504332869279142
-0.0007123562740937165
0.000837064606819668
-8.910873555230219e-05
0.00839082741601919
0.0001708069207007822
-0.0001916620365523173
-0.001145532923784645
-0.008196994532417963
0.008029672844269437
-1.097289998906936e-05
0.007845251750597628
-3.521445287485629e-05
1.029338739891023e-05
0.007383545295445466
5.077921309637925e-05
0.0002431853891088868
-5.450303349087702e-05
-0.007403997482534643
-0.0002190093816231673
0.007596364616564142
-0.0001448540530757663
-0.0004478794207190875
-0.007648571313735227
0.0001363095446895195
7.172545361110615e-05
0.007670522744210474
-8.100189076558008e-05
-0.007731126122306365
-0.0005199497503032684
2.507269427739336e-06
-1.741222193820547e-05
-2.809036109692762e-06
0.007502476501438391
1.946722857984046e-05
3.469948811633378e-05
0.00740278747688665
-3.885257507359103e-05
0.0002607497407497629
-0.007424686132403379
5.317772111348897e-06
-6.017810539843868e-06
0.007959165218465901
-4.078233040098453e-05
0.00770160208653159
-8.793921388803921e-06
-0.007765197863323953
-0.0005468627618384714
-1.840242383667263e-05
2.057676891039776e-05
0.007525032158299292
-3.140166446775826e-07
-3.85821501517438e-09
0.007519880136432104
0.000383476064294081
-5.926054030044131e-06
-0.0003425917495351562
-0.007554833455550442
0.007677627095312481
6.251988941113765e-05
-0.00773895579065833
-0.0005262105977551196
-1.763323719904873e-05
2.201073034112999e-06
0.007507474471041476
1.971511971182835e-05
0.007406513036316095
0.0002640699332825324
3.048246518062035e-05
-0.00742868782465028
4.626766124183366e-06
0.007969679532833273
-4.12645698635561e-05
-3.709485439631352e-05
-0.0007356080263897709
0.0008620748393003556
0.008443800432275481
2.761141365373247e-05
0.00140790387298913
-1.542221322121128e-05
-0.001215322235251844
-0.008283848401190898
0.008106695057063721
0.001406057333343478
3.095608107274512e-05
-4.669592819884684e-05
-0.001213123008730584
-0.008281615065556308
0.008104420588070531
-0.0007390003559514718
0.0008652829584724306
-9.118247174027029e-06
0.008450289356681845
-0.008554345678890204
-0.0007328629255944943
0.0008592089788690003
0.008437714229747996
-4.680945853747821e-05
9.611734709509771e-05
0.001384717066053052
-0.0001136524669283715
-0.001192757559818504
-0.008255484581589439
0.008081060195186901
0.001392621578701804
7.917916472098029e-05
-0.001200150172033906
-0.008265167211525421
0.008089633987209976
-0.008520377359282598
-0.00071901178197249
0.0008442985519591011
6.715814238088075e-05
0.008405838302983058
-0.0005890410465400486
0.0006921249805126286
-3.704782811888275e-05
-0.008649734236410656
-8.57061872169696e-05
-9.051453459067766e-06
0.0001005802707045383
0.008723655494431826
7.793987744516634e-06
-0.0005778739653785965
-6.172330422505576e-05
0.0006800784092510026
5.318629406775402e-05
-0.008614044793011505
-8.726050431943048e-05
0.0001021144325168092
0.008761348770253367
-5.42261025835043e-06
0.008391496820949749
-2.664647512547846e-05
-0.0005067841291908091
-0.008469244338262299
1.985102639772892e-05
-7.596707764552847e-05
-9.573126899941633e-07
0.008569178676622746
0.008019509465605595
-0.0003320965102281769
-0.008063744671630974
-4.901866384520752e-06
0.0003812390886122506
-2.886529733541896e-06
-4.874198768767242e-05
2.155136172811448e-06
0.0081088171345983
5.605692046792482e-05
0.00801292687274094
-1.97876083733677e-05
-0.0003296240220517649
0.0003785712448400025
1.478295035607937e-05
-0.008056869437511242
-3.896117255769141e-06
0.008560997840874189
2.901234067833976e-06
-7.516394496033184e-05
0.008398574675432539
-6.56172982622036e-06
-0.008476644490600999
-0.00050976038411785
-3.36941761313835e-05
0.008296312510525915
-0.0006318352593446589
2.510571948977748e-05
-2.35013291910442e-05
-0.0008012252652418375
1.172233929728376e-05
0.0009167783089068262
-0.007985901572231367
0.007882127518459741
-0.0004163146793944309
0.007964976566572336
-6.210485446304882e-06
0.0004770637864943473
1.94122807954477e-05
-0.0006170610036351307
0.000701208676847827
-2.918809782397371e-05
-0.007829364432345819
0.00775499257616091
-0.0007995950281386697
0.0009151093039624284
-3.537897921001606e-05
-0.007983935101628885
0.007880298475814587
-2.505962156874551e-05
-0.0004133081739921268
0.000473862117589297
1.87242626483412e-05
0.007958708288042864
-8.300817863692847e-06
0.008303139050124078
-0.0006352583851488828
-0.008385418528794224
0.008290562345465467
-4.246400463130827e-05
-0.000629236913785279
-9.773727517809966e-05
-0.0007756629693598253
8.474626038300317e-05
0.0008893282460246513
-0.007953485085298563
0.007852810823427106
0.0007886314368308792
-6.526372030763845e-05
-0.0006909946611205746
5.407140440316853e-05
-0.007889958989963839
0.007803514530156732
-0.007984841036117586
-5.127748992822777e-05
-0.0004013853975449157
0.007932122367975658
0.0004608122965068327
4.456925910605444e-05
-7.204696062494714e-05
0.0009034177633460747
5.961035220918397e-05
-0.007969981817716226
0.007867632099600905
-0.008354454507671322
-7.027868064344699e-05
6.071615349299376e-05
0.00826143740791392
-0.000616432155075617
-0.008008078629221633
-0.0004112224945422169
0.0004716002461819525
0.00795411108098977
-3.146982499158843e-05
-3.358926965337777e-05
-0.0005046408507788178
-0.008462875930058393
-8.154831502924389e-06
-7.332252369683166e-05
0.008519964717123418
7.037807448940887e-06
-4.847610904500423e-05
-3.62738604432156e-06
0.008103470616431629
5.576169199331302e-05
-4.052712826282182e-05
-0.0003200791521404808
-0.008027544281897296
0.0003680943718502852
3.521515430853454e-05
-5.564515512938458e-05
4.805532120150695e-05
-0.008430399491153918
-0.0004943391479955131
-0.0003279393930971072
0.0003767334283023499
-0.008051806680588748
-2.485359224576389e-05
0.008554244175293864
-4.913625969438641e-06
-7.482059540413271e-05
-9.998744955611737e-05
-0.0005507234838407671
0.0006503545033811758
8.973387515521853e-05
-0.008531130553695303
-8.494440843532306e-05
9.976702701364768e-05
0.008705794881138984
-1.036635684870856e-05
-0.0005725582791140718
0.0006742985416591627
-7.063316543114948e-05
-0.008597163270649454
-1.472055760581412e-05
-8.176773391947579e-05
9.629943989909085e-05
0.008635698420907389
1.319531020441932e-05
0.008671203810329941
-7.399546278099136e-05
0.0003150633460148767
-0.008714952075903141
-0.0002646483962258207
6.732877856504203e-05
-0.000121763709289087
0.0005213666189060259
-0.0004361417521985106
0.008596861642359151
0.0001108810105311624
0.008415811380352918
-0.0005411032080246025
-0.0001107298298373645
0.0006396964719275472
-0.008503662263993633
-8.036679539238192e-05
-1.632425126336375e-05
9.475066810260979e-05
0.008606429526977225
-0.0003104844167366018
0.00120658147463121
-0.008079004595626639
-0.001030730533240853
0.0002850600943378509
0.007928577976636158
-0.0002475303670092277
0.001022747237923893
0.008227549525526033
-0.008368252732571212
-0.0008608745593841848
0.0002263608955168302
-0.0006729051363297529
-0.0001393031031599483
0.0007936767325383876
0.008308447500304329
-0.0002602950435020221
0.001268626596605977
0.0002364127988128525
-0.001086200810626816
-0.008132406500504419
0.007973862959214748
-1.636651441189837e-05
-5.439485191856067e-05
0.008171257303107544
6.364691914053538e-05
1.516646980045858e-05
0.0002667827869313932
-7.038725596334513e-05
-0.008025758206114571
-0.000229599389369605
0.007993392281502682
6.556978301185334e-05
-8.052357419873319e-05
-0.008147274616568431
0.0003120425715334902
0.008107870882927715
7.466752321799947e-05
0.008260506920020897
8.898878182872013e-05
-9.812003348018361e-05
-0.0004610398346641578
-0.00833143904174854
9.180482690533087e-06
-4.376555453546582e-05
-1.001991949958095e-05
0.008003083729213604
5.05265911867115e-05
0.007916914317939922
6.263582740579168e-05
-0.0002959539416884937
-6.830631117985187e-05
0.0003411434233242254
-0.007956433315803547
1.308901561695962e-05
-1.444980641913608e-05
0.008415085084572043
-6.846880285305225e-05
-0.007913190593205905
-0.0001895865094567743
-0.0006072153187974802
0.007831053842343437
0.0007024921011486236
0.0001764464779679174
-0.0001278588359152594
0.007761110557751499
0.0004656668276553206
-0.00781324336004101
0.0001197890526996125
-0.0004054642421516803
-0.0001657304731933624
-0.0005377636830539519
0.0006247542123688349
-0.007988521223993742
0.0001540705746442924
0.000112141594348049
-0.0001235553501604365
0.008173674089764063
-0.0005746585502915387
0.0007030732816164109
-0.0001613683385561918
-0.0006138571341541623
0.0001489538792417753
-0.007799283763618775
0.00772248207547109
-0.00018180783059532
0.0008088526936381595
0.0001672434225409812
-0.007870076957842895
0.007778861953854844
7.912737800009251e-05
-0.0003710581811625726
-8.624848494658104e-05
0.0004269584126389809
0.007868135193387183
-0.008283701467621871
0.0001011002198167108
0.008195261566292062
-0.0005854900379348914
-0.0007673053490151381
-0.0001110400062981914
0.0008801915711782986
-0.007943102617965112
0.007843519126904104
0.0001006049114174286
-0.000572776030345642
0.0006525899142037915
-0.0001112731897989342
-0.007774362757052434
0.007705217151578613
-0.007974190436591075
-0.0003968169702458865
0.007922061748093583
0.0004557644306548582
-5.809626186273819e-05
-0.008339959512869907
-8.017981104349725e-05
0.008247841206186823
-0.0006103368370397866
0.0001246621447501342
-0.0007464280381852615
0.0008572178970561712
-0.0001385949439439352
-0.00791811006666758
0.007821253006989607
-0.007933454952450902
-0.0003787110977674651
0.0004355759032659509
0.007883678094617128
7.203943031715469e-05
8.017335098827691e-05
-0.0004696719539519472
-0.008355937566718114
-7.261709059203354e-05
0.008503882232568406
-9.314888061818831e-06
-4.465634846938621e-05
8.347955729711892e-06
0.008021379933632946
5.152920203115379e-05
-0.0003164428936164394
-0.008016415730084249
0.0003640724568397374
-4.59313980322238e-05
-6.351304962185518e-05
-0.008415175956573217
-0.0004894739409568423
-0.0003020419042185021
0.0003480032460875066
-0.007973779860576841
5.699939362017998e-05
0.008441124375123447
1.177958575985911e-05
-6.972744533791454e-05
-0.0006680967207387239
-1.066764044985609e-05
0.0007562077081090473
0.007680029899686967
-8.74129024956682e-05
-0.000643514213901588
0.0007295507385886612
7.610890442014577e-05
0.007656807187907652
-0.0005482094240105491
-0.0001788813878188587
0.0006227134789453446
0.007578482473153724
0.0001680122629845582
-0.0006359935678472256
0.0007212794907048083
-9.884279121753299e-05
0.00764990935207414
-0.0001584747412202344
-0.00048449375715328
0.007541886209465546
0.0001492374814239092
5.620835173559802e-05
0.0002670553708712718
0.007361549135475581
-6.031422185946464e-05
-0.0002409533408031814
7.888212158341667e-05
-8.90390788860436e-05
-0.0005625703437253827
0.007607256477359881
3.842913536965072e-05
-0.000258130146123922
-4.302690056442783e-05
0.0002862919071274677
0.007379223481053439
-9.69038426907354e-06
-0.000591947561591993
0.007635149262885344
0.0004184787302563907
-6.552688701531031e-06
-0.0003746990733406605
0.007482658121808834
6.878896746057479e-05
-0.0005693882425675331
0.007613594278061929
-0.0002614112951595099
0.0002899375097629187
0.007382654741871865
3.376121517369884e-05
0.008622753399418238
0.0003059335891215162
-0.008665175161753486
-0.0002565706590332067
-8.09366305598086e-05
0.0005059761304171447
-0.000422603442983408
0.008550676829144664
-0.0001330598264851257
0.001168219157942168
-0.008049053122263079
-0.0009970030399568917
-0.0003361929215177948
0.007903545509036811
0.0009911569568502431
0.008192829538968906
-0.008329102586847872
-0.0008332177271691849
-0.0002691965488345079
4.527103795189705e-05
0.00791278211133002
-1.329290173295479e-05
-3.916219990851349e-05
0.0002579410215081286
-0.007997645304197805
-0.0002219634867881362
0.007966347167662596
-7.506665417025394e-05
-5.266034915424433e-05
0.008138342681060199
6.165741805251937e-05
-1.754917477961831e-05
-0.008115130972753135
0.0003018140835520323
0.008077021005815766
-8.628666934020865e-05
0.0004500416882461473
-0.007792227862000628
-0.0001355710840176662
0.007741841418779801
-0.0003919429969421032
-0.007686174612575667
0.000560679226160448
-0.0001734490722726113
-0.0004917222715932383
0.007626822561250936
-0.007888847643370256
-0.0005867900062924543
0.007809476098660337
0.000678946573695066
-0.0002023715321682845
-0.0005196998143428961
0.0006038834123580145
-0.007961648907506839
-0.0001771128071079944
-1.110478535869365e-06
0.1123040632250802
1.913771608626529e-06
-2.537437274525849e-05
-0.1123047040096736
-7.974141875348004e-08
0.1123083978804491
-3.216341633949929e-06
2.539721609571693e-05
0.1123040103222142
-1.286922570229429e-06
-2.313271938771548e-05
7.171481702582994e-07
-0.1123057050445251
3.71944877695698e-06
-0.4491577534675634
-6.055582084158425e-06
0.4491480842723944
-5.508254815145958e-05
1.780259793865424e-05
2.30513837163257e-05
1.246276740426988e-05
1.377112756676541e-05
-0.4491603660915118
0.4491508621058884
2.036494152114071e-05
1.984478023565883e-05
1.454386066282454e-05
1.470263470604305e-05
1.106824828892197e-06
-2.128711226615216e-06
8.148497350479733e-06
3.491135666236489e-06
7.029787155075906e-06
3.934460928202432e-06
-1.785990321263919e-05
-1.817443135289079e-05
7.597095814999844e-06
3.927638191660032e-06
3.804518017479219e-06
7.458430699797125e-06
2.536056653916619e-05
-2.285112669887149e-06
-0.112392006919837
0.1123895525308889
1.540594075383943e-06
-2.216165899509677e-05
2.707099616510819e-06
-2.498660381357634e-05
2.868980159581146e-05
0.112406561868946
-3.548119380487105e-06
0.1124112481020596
-8.309126942060609e-06
9.585096488945091e-06
5.953412536093908e-07
0.1123904633870439
7.415798783650087e-07
-7.127599117157459e-06
-9.73160936723616e-07
2.914614109002102e-05
0.1124083430838638
1.826542993357145e-06
0.1123880425546577
-2.18525845685321e-05
-2.998299816387484e-06
4.995293405586135e-07
-7.231167488797041e-06
-1.200073634242647e-05
-9.978637951299885e-07
-0.1123253257044947
0.1123241875460508
6.802810778643941e-07
1.345647750383705e-05
8.380440022320103e-07
1.185910483949039e-05
0.1123144675342065
-1.011960085506303e-06
-1.064443510577183e-05
0.1123160869077111
3.813360773810385e-06
1.79512028314773e-07
-3.413726794449132e-06
0.1123246390428871
3.112021840415724e-07
4.24442145775318e-06
-4.06187716475519e-07
0.1123150583803074
5.837597231504799e-07
-1.07179250347169e-05
0.1123235000499676
1.329045072380427e-05
-1.29021710648658e-06
2.116280395274106e-07
4.299392006754788e-06
-0.009321310828793604
3.802386866113667e-06
0.009260382636844285
-7.637196972977523e-06
-0.000364133561378445
-1.272847477845127e-06
0.009321699837036259
-0.0001212568958004228
-2.553418243964525e-06
-0.0001204799361726803
0.009260183673744484
-0.0003650711000282202
0.0002479914735771872
0.007391643044552782
-3.987239093841137e-06
-0.007411936415534944
-0.0002237069048000497
-3.958703808204182e-09
0.007483674300089842
-2.836141945474604e-07
-1.650265713880483e-05
-3.672333052911739e-09
-2.257935476896176e-06
1.983902924657943e-06
0.007467799895833351
-1.581609904513716e-05
0.02900541657154147
-6.19483975812639e-05
-0.0004181615342373183
-0.02907251686983207
4.726910592679525e-05
0.0001220500781932564
0.0001283759515538314
0.0001283251162373694
0.0001211899781995577
-6.574790384155078e-05
-2.396720499349874e-06
0.02918310835477592
2.403426422602651e-05
1.562038663612507e-05
1.557897437331557e-05
2.401763412122069e-05
-9.367130032759158e-06
-6.352086248333803e-05
0.02915483321443855
7.112438135487531e-06
2.312868280205521e-05
1.492030727535433e-05
2.324057287478396e-05
1.5206210604796e-05
0.02902814319306594
-0.0004328016711119271
-1.599286361457443e-05
-0.02909785981950122
0.0001261699270032977
0.0001330646092396258
0.0001330105105177165
0.0001262768929685739
0.02843956088936409
1.559298849351507e-05
-0.00012166315283346
0.0001391515596670576
-1.918436243826578e-05
-0.02845345792224972
0.000142978048368376
-3.358478687272531e-05
-0.02858826595339707
-0.0001236026078556891
0.02857221038695328
3.026491280675636e-05
3.187447484326193e-05
3.744840831063971e-06
-4.602500067083922e-06
0.02863023535972213
-2.739439000505654e-05
0.02848596745144717
-1.470722896112129e-05
6.519996313932175e-05
-0.02849284162986591
-5.685051355775839e-05
1.323195779590137e-05
0.0002138885638713116
0.02857837435734959
2.533140671146299e-05
-0.0001844480264577751
-3.112896419414452e-05
-0.02860201733728088
-2.426260684462057e-05
0.0001073779387860749
-9.371011794821904e-05
0.02847473447406724
2.182776333581129e-05
2.287775829998586e-06
-1.791594756465836e-05
0.02846990614898421
2.054505336256546e-05
-2.815292674668715e-06
-2.696011862205149e-05
-0.1130341427987088
0.113003548241045
1.84592502793553e-05
-0.0001615948255523562
4.63790708811699e-05
5.377726298879011e-05
5.36150104760505e-05
4.691890720524838e-05
5.039658236079646e-05
-1.010402019523758e-05
-0.02829933073086111
-4.554008144574875e-05
0.02829551315209364
9.065098045190316e-06
1.089287504290594e-05
1.089219438848459e-06
-1.345035576544198e-06
0.02831216214189337
-1.033192069587512e-05
0.1130162553014831
9.072621293066829e-06
-5.264301243093977e-05
-1.16498208903244e-05
1.991966298309222e-05
1.258496254018769e-05
1.982239881869602e-05
1.299869779385239e-05
7.369846739537936e-05
0.02829768373721109
7.510660795682996e-06
-6.492236754828934e-05
-9.302256334564508e-06
-0.0283046682415233
0.1129866631623195
-0.0001562362283699239
-3.462720216387169e-05
4.460642185566063e-05
5.168530529520154e-05
4.534531422839723e-05
5.185840949956458e-05
6.211607658172544e-06
-5.445620404190147e-05
2.065995369400844e-05
1.3413134622128e-05
2.059009541440122e-05
1.310507020372588e-05
8.961915157752141e-05
-1.041725465742557e-05
-0.1126664465449388
0.1126550490324192
7.085016475806937e-06
-7.488940088791188e-05
1.301013009018844e-05
-8.73213583128109e-05
0.0001050874260591764
0.1127110971074607
-1.682823314132262e-05
0.1127337019418011
-3.001775478634897e-05
3.628031891032385e-05
2.965005059428588e-06
0.1126595069812097
3.477690923111343e-06
-2.443338348015247e-05
-4.509136923944249e-06
0.0001080973077920618
0.1127193699431342
8.863972299064046e-06
0.1126483897931791
-7.311436662967603e-05
-1.350705856739239e-05
2.36444394557328e-06
-2.50319982433979e-05
-3.365024385387241e-05
-3.855230424695877e-06
-0.1124587631384948
0.1124546217153277
2.605813088882088e-06
3.904108435650071e-05
3.222042140649394e-06
3.308911555980332e-05
0.1124277517183962
-4.218172520724759e-06
0.1124333211722881
1.110370046018597e-05
7.124534828954497e-07
0.1124561762158187
1.26830774683636e-06
1.268842786218158e-05
-1.658502432316321e-06
0.1124298632736487
2.175837753506979e-06
0.1124521050124194
3.83459603219445e-05
-5.040872032680096e-06
8.567220568329985e-07
1.292192943043354e-05
-0.0001665923938936915
-0.008345069512991087
0.0001452310398948702
0.008137837011356104
-0.008327998147183187
-0.001349715700128061
0.008122932749001865
0.0001495859773180048
-0.008532984498319301
-0.0001699810862203729
-0.001260603179542853
0.0001302887949416376
-0.00855209891940586
-0.001273022704931355
0.0001758165369801672
0.007577807104853789
3.525547155847018e-05
-0.0001559565417103766
-3.800712077817036e-05
-0.007594915450901995
-5.913484521244065e-06
-1.884152934862647e-05
0.007531714007628388
2.117571725696576e-05
5.607668664485825e-06
-2.328002298714653e-05
-0.007446835964253789
0.007439390330911071
8.312276655276951e-05
2.213259847868759e-05
-7.452970870051881e-05
3.678282618221215e-06
-3.952040439772853e-06
0.007476572699538229
1.814869360829982e-05
-1.624146434583206e-05
0.007452654631092144
2.531357580526015e-05
0.0001240123949533388
-2.719341465524344e-05
-0.007463673439691575
-0.0001111137475038926
-2.928306319363168e-05
-0.00752567338104472
-9.30162317018146e-05
0.007515741868268547
0.0001044574451111847
2.777336256187359e-05
2.584084608814406e-05
5.13800025606995e-06
0.007615003658107133
-5.541155672548819e-06
-2.288803391246197e-05
0.007923572043193739
-0.007960684875325892
-4.437376413495568e-06
-0.0002905408823930626
-2.606242530701771e-06
1.947416370211554e-06
0.007997675524881396
-4.256484251002782e-05
0.007917335283327769
-1.788114204169178e-05
1.336986643897299e-05
-0.007954175983127728
-0.00028827204666452
0.007693206715610604
-0.0001973941397221013
-1.314990503179355e-05
0.0002231383854187859
-0.007715654486694205
9.853430416055313e-06
-2.927879229510508e-05
3.314560133662978e-05
-4.735926437856608e-07
0.0077475307513243
-2.901510541970582e-05
-1.911812391400472e-06
3.284843339882029e-05
0.007742064210210731
1.431442435131322e-06
0.00769823202851804
-0.0001990909721055162
0.0002250143744881976
-3.27791126957039e-06
-0.00772087260131683
-1.683802140430278e-05
-0.008401955615000754
0.008188471140122567
-0.008401736504358388
-3.381194497301204e-05
-0.001407475328731684
0.008188087474371275
1.505400753394867e-05
-0.008614498356433999
-3.023657049811797e-05
-0.00131232313211875
-0.008614458132573184
-0.00131254394528533
-0.0001248903190885054
-0.00837272122980582
0.0001054337374273141
0.008162089988040546
-0.008359982774420684
-0.001375017520195279
0.008150901725140467
-0.0001119556541921014
9.445339587110436e-05
-0.008582941173333138
-0.001292305200480883
-0.008568749933843387
-0.001283537059299749
-2.843445660837075e-05
-0.009279851057048604
2.394577869405929e-05
0.009220350835096383