/*--------------------------------*- C++ -*----------------------------------*\
  =========                 |
  \\      /  F ield         | OpenFOAM: The Open Source CFD Toolbox
   \\    /   O peration     | Website:  https://openfoam.org
    \\  /    A nd           | Version:  7
     \\/     M anipulation  |
\*---------------------------------------------------------------------------*/
FoamFile
{
    version     2.0;
    format      ascii;
    class       volVectorField;
    location    "0";
    object      U;
}
// * * * * * * * * * * * * * * * * * * * * * * * * * * * * * * * * * * * * * //

dimensions      [0 1 -1 0 0 0 0];

internalField   nonuniform List<vector> 
12687
(
(1.000508739308705 2.283877264478716e-06 -4.861741529319209e-05)
(1.000421294823033 1.224732328867007e-06 -3.350790811892233e-05)
(1.000357586259041 7.622768747869444e-07 -2.376796250230203e-05)
(1.000310756201211 4.917527999790593e-07 -1.697914703615326e-05)
(1.000276195605686 3.167192985256404e-07 -1.212103154002206e-05)
(1.000250786449698 2.005014908742755e-07 -8.572797103627587e-06)
(1.000232420142046 1.233967368441464e-07 -5.915076245491525e-06)
(1.000219681723283 7.352261564824627e-08 -3.853354943416295e-06)
(1.000211647859618 4.365622107403732e-08 -2.171647576032747e-06)
(1.000207761888466 2.966401118699829e-08 -7.012762028208117e-07)
(1.000935952875922 2.254544163064612e-06 -3.09849938303302e-05)
(1.00067815906441 2.698890630830781e-06 -0.0001218482184129152)
(1.001849604163557 9.09321865337428e-06 -8.338834525029444e-05)
(1.001009630550835 2.637466166494478e-06 -3.384950368900289e-05)
(1.053705572463215 0.004198474926706369 -0.03424058816770952)
(1.019578457443431 0.0002313672330387477 -0.001029450048431393)
(1.008989350779864 6.860909077877846e-05 -0.0003789025729122321)
(1.004679364261964 4.449080837852322e-05 -0.0003053466046404345)
(1.002044095147039 1.086467610585091e-05 -9.631895235527055e-05)
(1.062642788704416 0.000653046698393842 -0.002417358219736765)
(1.141467407955141 4.553918217281423e-05 -0.007002286076998919)
(1.157288277956817 5.041326017471573e-05 -0.008046771771081651)
(1.111115315537882 0.000690203372447573 -0.1000056279302285)
(1.107010136307048 0.01060474374592404 -0.09634935689714492)
(1.151507857619123 0.0007886989568349628 -0.007765716290593081)
(1.131523563989579 0.001723895464578188 -0.006647014073646753)
(1.093543003216773 0.02263506521409626 -0.08220807522712835)
(1.105832097834882 0.01208554646365584 -0.09524508471291515)
(1.149822589371361 0.0009007682464795316 -0.007680205203125793)
(1.001749714257727 6.384263637933608e-05 -0.0005805549299081319)
(1.001882492845394 1.318008121145058e-06 -8.6049809443027e-05)
(1.001779598144909 9.377286795550917e-06 -0.0005984045596758687)
(1.001400549408981 5.437558388983064e-06 -5.534947311724442e-05)
(1.001339028496022 3.929010293231173e-05 -0.0003935661774342246)
(1.00142066386759 7.809777888188669e-07 -5.687056234008652e-05)
(1.001357729718429 5.740597754669434e-06 -0.0004037953261913914)
(1.000976121728543 2.018474352290813e-05 -0.0002502443481957881)
(1.001020289424608 4.003323539435023e-07 -3.454784159700723e-05)
(1.000986164141816 3.207659925709053e-06 -0.0002538702974723198)
(1.001285034264153 4.585958282660301e-06 -4.861301601416043e-05)
(1.001232258521468 3.358859652348347e-05 -0.0003484254369255384)
(1.001302191664017 6.579017487924642e-07 -4.990514439605341e-05)
(1.001248375097674 4.904075978718145e-06 -0.0003570987616584314)
(1.223939000511216 0.003641236027608911 -0.09721534457375691)
(1.249847492124279 7.49063519760728e-05 -0.01479821886497899)
(1.248084160990125 0.0005330148939519598 -0.01471859857184127)
(1.225566923774966 0.0005131176108882349 -0.09774115064036426)
(1.041982319476373 0.003523317776846664 -0.04712273370148284)
(1.053204937455601 0.004733521833986733 -0.03381233326755218)
(1.039562719730358 0.008655211618170551 -0.04316378325882139)
(1.021916548704692 0.000274616637044678 -0.001196428578025502)
(1.015121484373231 0.003457300437121868 -0.01471526295376078)
(1.024083017470558 2.021311097599034e-05 -0.001376496812438513)
(1.016312336041266 0.0002564884813019487 -0.016821006792445)
(1.013897171100568 0.002947265269920753 -0.01285083608611865)
(1.021402817448942 1.698035117958623e-05 -0.001176948446611963)
(1.014943661065429 0.0002181351854916363 -0.01460368630759128)
(1.009806696295361 7.882479807372637e-05 -0.0004109516265422103)
(1.00793758751518 0.001066580541657121 -0.005491452359750268)
(1.010424756215258 5.629284030136875e-06 -0.0004523475120857362)
(1.008366380423543 7.735805482112853e-05 -0.006007531288339253)
(1.00735745538536 0.0009559491141822286 -0.004919589699712417)
(1.009527518542664 4.876006302349336e-06 -0.0004152519151441444)
(1.007745556567944 6.777564071056716e-05 -0.005345794804526177)
(1.0053872991762 5.614115606794544e-05 -0.0003699141997396245)
(1.004782750426233 0.0003704777881317356 -0.002432206302062059)
(1.005586138149896 8.438170918800036e-06 -0.0003927658441427773)
(1.004944978197988 5.596986356938121e-05 -0.002578236949403406)
(1.004200661214396 0.0002959225960173249 -0.00202291462854317)
(1.004836916629043 6.652914396152876e-06 -0.0003226317629955178)
(1.004331818281149 4.447637694331165e-05 -0.002134123114449781)
(1.003182256396407 2.334051542477733e-05 -0.0001797001624875342)
(1.002930831797939 0.0001583848633909982 -0.001213672343305926)
(1.003265145290907 3.443543947332198e-06 -0.000187707927228387)
(1.003002892462226 2.35434351659657e-05 -0.00126629066410052)
(1.001925471592415 7.570370774343947e-05 -0.0006663269517518538)
(1.002083185156881 1.580013311459773e-06 -9.958477608809419e-05)
(1.001960731328749 1.11420360791153e-05 -0.0006881654261947377)
(1.002829129468099 1.910616282994394e-05 -0.0001525497989030696)
(1.002622917305641 0.0001304732522815747 -0.001036454105651696)
(1.002897129886731 2.808002224784502e-06 -0.000158870499079746)
(1.002682676755943 1.933967328817627e-05 -0.001078207136867046)
(1.165881131815768 0.02855426363987849 -0.2163617115516378)
(1.192273893134076 0.0169878626278586 -0.1122199520517919)
(1.158185324192337 0.02010701657655142 -0.1901751229655654)
(1.200888333314544 0.01187347855364983 -0.1165611227715251)
(1.153742450778723 0.02577210820533483 -0.1858542973163065)
(1.118490351092538 0.001515144284820833 -0.005758300218991763)
(1.054320497528909 0.007506433943350102 -0.03499960621985836)
(1.086530051738085 0.02004111831219221 -0.0722782401802267)
(1.097659793756427 0.01088475448983038 -0.08386361320562684)
(1.069943654930568 0.0003790393875826288 -0.002794906644763705)
(1.057167217414919 0.005244110994759391 -0.03751805652168237)
(1.134736737655167 0.0008078286919006053 -0.006669685936160322)
(1.102482646260726 0.0006264381274554068 -0.08820301335752605)
(1.073180476799942 2.211393895559993e-05 -0.002952938006822259)
(1.074759915101021 0.0004221521726436032 -0.05497362861044983)
(1.098732646917133 0.009567616192395713 -0.08486434778415616)
(1.07065865795674 0.0003356938865048004 -0.002830404114981505)
(1.05771878814562 0.004647340761689318 -0.03799538857729836)
(1.136250189271633 0.0007087121634338664 -0.006746805362489626)
(1.209057752845651 0.004602235977400592 -0.1202891440044491)
(1.166323970916175 0.001097323529870991 -0.1972572410108517)
(1.165672813867698 0.005524922312163419 -0.1967314838973832)
(1.210604955942572 0.0006487682658728612 -0.1209500861463104)
(1.20800140414558 0.005966475126454579 -0.119828225726243)
(1.161634759008329 0.01491597097850225 -0.1933047990775758)
(1.162996562361309 0.0124655266616976 -0.1944891943646244)
(1.203115038837955 0.01031317764780433 -0.1176139192898908)
(1.22282521513737 0.004721495877035018 -0.0968485840003922)
(1.241275194152962 0.001198335215384418 -0.01440407308157638)
(1.217660761830581 0.008168828594692791 -0.09508538872077857)
(1.246878700477661 0.0006914221514980984 -0.01466449393711288)
(1.199852356809477 0.00330996680762962 -0.08310120018293257)
(1.22111821133918 6.79742907917349e-05 -0.01259450823401443)
(1.146130099880448 0.0003489903953973834 -0.05403759137782418)
(1.156068203108694 0.0003593020418153415 -0.007988900398129694)
(1.144991684272225 0.002463458825820859 -0.05364578435718826)
(1.219500861529195 0.0004840741593745009 -0.01252039646786644)
(1.201349941472047 0.0004670552360916109 -0.083595430512843)
(1.187667648135095 0.004185743342898328 -0.1031642330514501)
(1.130586149307836 0.002509849154320813 -0.1296821959512897)
(1.139104372281022 0.0004422376324298049 -0.06760290307728753)
(1.110678229186236 0.003463791188214615 -0.09963038960578373)
(1.130240643108605 0.004195104618634805 -0.1293891097740191)
(1.13801754554919 0.003119967515874047 -0.06710910809175684)
(1.189092100150194 0.0005908753820413101 -0.10378594427327)
(1.186701217460371 0.005420611574762895 -0.102734829410777)
(1.125858827122598 0.01299790078130345 -0.1254934508418817)
(1.118133244102376 0.008502425084444097 -0.1116681140138589)
(1.133970408574312 0.006828770139809856 -0.06520130188960782)
(1.128147934687359 0.009378201814051019 -0.127569733930996)
(1.182254899937795 0.009321913991369992 -0.100687864366118)
(1.137287907710124 0.004027942382594338 -0.0667731837817547)
(1.1988347881129 0.00428726400231806 -0.08275976019804483)
(1.213324653499471 0.001081540397895115 -0.01222943576454902)
(1.155248120432389 0.0004641959930270548 -0.007949632599323894)
(1.140744839503184 0.005396389460582466 -0.05213089973835965)
(1.194143612572552 0.007379403940970175 -0.08113098110166678)
(1.144226888307136 0.003180875095846213 -0.05337918675661223)
(1.21840199447434 0.0006272882280142965 -0.01246997811587161)
(1.206141818403641 0.01348580329776655 -0.09078126282721928)
(1.238707229988691 0.001381271178229347 -0.01427981231775001)
(1.215301646508733 0.009408875997025064 -0.09424634809148869)
(1.228684940409524 0.001985416335296739 -0.01376524249153983)
(1.23371749864236 0.01002779134874632 -0.04482368081846377)
(1.22495018223875 0.01650342511471683 -0.07305477043689192)
(1.202345543837865 0.01497764451011854 -0.08924445093732734)
(1.224506240062566 0.002207700204339886 -0.01353641266916628)
(1.138187906103879 0.04235229610201283 -0.1676493967837563)
(1.178455325701232 0.03365440351518653 -0.1408131965451847)
(1.188718616079767 0.01885255394140996 -0.1102982082467769)
(1.145166018133169 0.03531783913311902 -0.1764700757127003)
(1.164176746700379 0.002244460429236666 -0.009026932210261971)
(1.140941038265062 0.009681016953801537 -0.0377100583198488)
(1.157264372847685 0.01104589967397992 -0.04399848480127815)
(1.18038477660609 0.01331319311268498 -0.07582361358303158)
(1.140785063892691 0.001367846935975077 -0.007193610325246094)
(1.130821484150716 0.009328532011367586 -0.04826118318871846)
(1.198309156095988 0.001959847321066114 -0.01144190131770903)
(1.1212739909136 0.02607268926639792 -0.09866558903941917)
(1.109665673772731 0.0176464878364005 -0.06580126039267972)
(1.132303024738868 0.0227750484421661 -0.08761500943872742)
(1.169290987790914 0.01677174723723011 -0.09403585911060271)
(1.105840731092503 0.02211023007587212 -0.09933395671518346)
(1.114633688054578 0.02486375026871936 -0.1139140607296809)
(1.124554904211983 0.01178213875733302 -0.06033972756678545)
(1.172474978489941 0.0151739946581257 -0.09576742437079261)
(1.124442556026553 0.01487057404622123 -0.1241628086872097)
(1.103032894048583 0.01509803313218481 -0.09252046343101414)
(1.132481257776182 0.007792411589266288 -0.06447191258879768)
(1.180237321749213 0.0107067773426495 -0.09972056332912763)
(1.121062825114603 0.01875101190936891 -0.1208400466075451)
(1.126834662849489 0.0107698004433866 -0.06157133223453513)
(1.183775365978998 0.01203661990646574 -0.07720736032974265)
(1.211008833331172 0.001243594270552053 -0.01211545057089881)
(1.143396036517499 0.001248803115727093 -0.007339019148052637)
(1.139179376947895 0.00615977628440896 -0.05155118775360804)
(1.192010256980259 0.008479180030482647 -0.08036060373550258)
(1.133229718336922 0.008523120754944389 -0.04924279556184403)
(1.202027295333621 0.001769991061013261 -0.01164770975830973)
(1.100347668511424 0.0007599476831375944 -0.1076948713877851)
(1.096651503356429 0.01165325342423025 -0.1037120276484439)
(1.084726304984812 0.0247253132982692 -0.08843214179210071)
(1.095596284933604 0.01327327722702465 -0.1025120420431957)
(1.078991509135414 0.02193476449158133 -0.07804713313054147)
(1.051297451206272 0.008307875107183844 -0.03846894960523767)
(1.08890281005964 0.01196829806106825 -0.09058502991191708)
(1.05392928966617 0.00580766539537226 -0.04122674623436813)
(1.093258442748558 0.000690356817280781 -0.09531477635018051)
(1.069622682046292 0.000466830539704432 -0.06005529827295632)
(1.08986839123605 0.01052505854972524 -0.09167396014482321)
(1.054440113018601 0.005147040146735073 -0.04175153862524596)
(1.22682004964629 0.01098893232932701 -0.0434593978813751)
(1.218321743505948 0.01807212778431153 -0.07081921699832679)
(1.134345876696619 0.04599784901755006 -0.1622678017011595)
(1.173294757005627 0.03670096004292563 -0.1363886625193176)
(1.127967910761931 0.001837753336018438 -0.006424933787701502)
(1.137068791136465 0.01035645175913186 -0.0364491731048526)
(1.159527572524669 0.002413912524740425 -0.008727744676131651)
(1.152844568942167 0.01187162896808661 -0.04253673007741063)
(1.106839707392994 0.01877240987712578 -0.06360546481071119)
(1.09125258440309 0.02404116309626895 -0.07947316889841366)
(1.118058612012723 0.02792294956576001 -0.09536738279781862)
(1.128717491907262 0.02441858610178039 -0.08469039836499132)
(1.000909095369711 1.347676456946568e-05 -0.0002394614761838648)
(1.000945520531267 3.49490015990206e-07 -3.15228014656055e-05)
(1.00091332046716 8.930607013228579e-06 -0.0002297275052388114)
(1.000765124272633 1.088995480565758e-05 -0.0001445803843520412)
(1.00077112955679 4.140445559046228e-06 -0.0001487409411802586)
(1.000780042948711 3.60457597708608e-06 -4.788613527712088e-05)
(1.00078561965249 1.228802774927613e-06 -4.847587464302998e-05)
(1.001679097817543 1.704824225966599e-05 -0.000224957280635564)
(1.001832510182734 2.787471595444983e-05 -0.0002540894930621906)
(1.001865925492036 6.588032526867418e-06 -8.470638310535234e-05)
(1.001679952991281 7.641285329923338e-06 -7.247981403284089e-05)
(1.001848576107043 2.020296971993891e-05 -0.0002580199177713)
(1.001665490668576 2.354411930188922e-05 -0.0002217239686727026)
(1.001693760154576 5.530672381581329e-06 -7.356352393305394e-05)
(1.00109066912709 7.478205269491536e-06 -0.0001205075211657445)
(1.00100360578584 8.244050046069432e-06 -0.0001065256328769809)
(1.001014825312963 1.956002565391831e-06 -3.421106541187937e-05)
(1.001091323284368 3.196856851025116e-06 -3.792613914857135e-05)
(1.001008817198608 6.335889280048171e-06 -0.0001075439591817438)
(1.001084545559661 1.019622258545305e-05 -0.0001190511505954776)
(1.001097463171704 2.329853516169451e-06 -3.840356345829666e-05)
(1.31713647596213 0.0008129337000001381 -0.06187761666943101)
(1.324003828164951 9.065528439338947e-05 -0.02087605376554748)
(1.323672004346806 0.000272105805065 -0.02085914522574025)
(1.317459408466571 0.0002703894357385364 -0.0619208393264434)
(1.055481533771235 0.0002840046216406549 -0.03572400820624833)
(1.067272398088101 1.995962725939897e-05 -0.002644104183539991)
(1.064996162736702 0.0003024364874659064 -0.0025344308271958)
(1.035234802335515 0.001946793831422356 -0.0173840906202527)
(1.040571457906269 4.253584346472004e-05 -0.002745581353462572)
(1.039556545984292 0.0002937470204280401 -0.002651260290397846)
(1.036091867980091 0.0002848795833270223 -0.01801314517929048)
(1.014114284946486 0.0006199039724417506 -0.004938503270227892)
(1.018881672249454 0.001138116507000276 -0.005047680841547359)
(1.020728640804975 0.0001487907750586046 -0.001122251114151433)
(1.015643486877006 0.0004980140962828744 -0.002311015140338085)
(1.019236668204955 0.001006402344591238 -0.00754246613037553)
(1.015320727957526 0.000821557749837877 -0.003807584507615953)
(1.014985836445587 9.096185376322486e-05 -0.0007282556855886066)
(1.007276713378374 0.0002023993096627285 -0.001714958944738043)
(1.00879933917824 0.0003416882608258221 -0.001816552215356053)
(1.009330264446845 4.339043408755995e-05 -0.0004018896246618792)
(1.007298660654686 9.234403932096166e-05 -0.0005584318799288459)
(1.008933170494823 0.0002996891329052532 -0.002624773203814654)
(1.007121758662292 0.00027444747717633 -0.001655534576187181)
(1.00745962212756 6.811009182194989e-05 -0.0005785773161903724)
(1.004085179230456 7.799420558031926e-05 -0.0007787387098886507)
(1.004596071251151 0.0001329667114817696 -0.0009108108135703471)
(1.004757101759141 3.261189971247332e-05 -0.0003138370352450082)
(1.004090951769242 3.559116918407364e-05 -0.000254083847816952)
(1.004671513969476 9.747610613774708e-05 -0.0009359359023136898)
(1.00402457979014 0.0001066123241847769 -0.0007594590529766394)
(1.00415322601485 2.603391665481937e-05 -0.0002605905468836219)
(1.00226654258467 2.879191804441987e-05 -0.0003441009619412249)
(1.002023774860813 3.315533323892923e-05 -0.0002924445782500613)
(1.002063484400164 7.879625523921116e-06 -9.793513348838016e-05)
(1.002268104311322 1.304254933963113e-05 -0.0001117338708184045)
(1.002042837849262 2.405421279084998e-05 -0.0002972609938158776)
(1.002243799637769 3.964310909379053e-05 -0.0003381542053546464)
(1.002291266065365 9.469628833498731e-06 -0.0001137307923830003)
(1.170731310418373 0.02214854769058838 -0.2210188952596691)
(1.168446439716277 0.02526483136498681 -0.2188724025531713)
(1.196498932466602 0.02267824082688111 -0.2047992467491129)
(1.199079389306305 0.01986172014179006 -0.2067455659850408)
(1.081675374766074 0.005222915322632209 -0.02513342484780498)
(1.074093799732955 0.0008213515715046318 -0.003033747203744128)
(1.061355074688238 0.003237754069864477 -0.01194348651320401)
(1.066241421957604 0.0005440163730918311 -0.002606214944348157)
(1.063495988496909 0.0037436022116505 -0.0178099489132051)
(1.072374097274025 0.004067651215656847 -0.01496408193766501)
(1.085955455770021 0.0007613055768226451 -0.00369713164446003)
(1.132124144591802 0.0003159174181649371 -0.04716763640003062)
(1.140362025703471 0.0003245651444889829 -0.006949440042602379)
(1.131090307421258 0.002227277384984433 -0.04680888558702183)
(1.098482783816053 0.001639916437880878 -0.03185681904857141)
(1.104921832892554 3.344027511528784e-05 -0.004734109267729142)
(1.104105558768935 0.0002383466844206918 -0.004694603876959769)
(1.099251293030601 0.0002333431523943934 -0.03212641110383602)
(1.179539928468256 0.001197397019744896 -0.2285507076985754)
(1.17931042825812 0.003601975979430374 -0.2283718639737279)
(1.208664860953402 0.003218898512862992 -0.2133810819884856)
(1.208916349030092 0.001070176297642496 -0.2135384472153296)
(1.174481731713418 0.01636071194302418 -0.2243697435565091)
(1.172741234221435 0.01918690124242079 -0.2228406153364363)
(1.203292256323014 0.0146490406860365 -0.2097793206868898)
(1.201340636823498 0.01719159710499231 -0.2083956478103034)
(1.309989691758771 0.003714755705167195 -0.06093815224676651)
(1.313736495153657 0.001462328987792785 -0.02042508911945471)
(1.307341132518141 0.004368270643849462 -0.06057594839813796)
(1.316423385704608 0.001243305432699262 -0.0205462758472408)
(1.172980508122783 0.0005057927208265272 -0.02763726665088955)
(1.175504504599999 5.575762516551089e-05 -0.009292076290205483)
(1.155374975644718 0.0001520216377113681 -0.02397418415052311)
(1.157085970298973 0.0001527462256773473 -0.008037183828204425)
(1.155175036239063 0.0004579821625039967 -0.02394573000786052)
(1.175282071405706 0.0001687719984664998 -0.009281593364434721)
(1.173200185927602 0.0001679179415635015 -0.02766821227044499)
(1.110969780491185 0.002074217760457695 -0.09988106577847125)
(1.12037008533966 0.002283182763709997 -0.1136185330010297)
(1.120528562632812 0.0007596073769034712 -0.1137533926200145)
(1.132409317696534 0.002031733167886378 -0.1034357677405084)
(1.121340181581971 0.0006136062597253456 -0.09071970812369752)
(1.121181723387652 0.001844297330440289 -0.09060816682484782)
(1.132582293465153 0.0006758564434322301 -0.1035565620275735)
(1.116040315861477 0.01174615918340654 -0.1097641839376901)
(1.11716860027866 0.01011035279999631 -0.1108001510107482)
(1.108039854254018 0.009142830196153268 -0.09729431908963224)
(1.128901756853321 0.009009257340434491 -0.1009050850828007)
(1.116853619397522 0.009445048355949004 -0.08743827640115341)
(1.117981888801119 0.008139509469188518 -0.08828748038667897)
(1.127660909878502 0.01047194004704185 -0.09997307581999305)
(1.168486107349314 0.002253231926736248 -0.02698893152320338)
(1.169107747790762 0.000877147255582939 -0.008984025954988687)
(1.152971330534831 0.0006786724794740073 -0.00783863728193126)
(1.149662110586976 0.002358895521982422 -0.02313533809723547)
(1.151108154184985 0.002030143634445715 -0.02335306141307581)
(1.166880915392236 0.002622909118697551 -0.02674919514987344)
(1.170732978483677 0.0007533997125780305 -0.009064329824367728)
(1.300684491666468 0.005792855624203908 -0.05963096713310084)
(1.310596871584714 0.001693862493655031 -0.02027995378928641)
(1.304247534135944 0.005058935097330738 -0.06014299725010532)
(1.306979286565832 0.001939960460433157 -0.02010813641434498)
(1.267491934158743 0.01146284376615336 -0.05409814951492545)
(1.273198528870597 0.003844651697236987 -0.01825010954222488)
(1.274644178494576 0.01033877320687191 -0.05541609762172139)
(1.280490210187273 0.003466408501878921 -0.01869268581807052)
(1.198068267297636 0.03832306870428728 -0.1672108585535163)
(1.220682184185363 0.03240639112454407 -0.1453117302785766)
(1.203431870049714 0.03473498174333662 -0.1715159817892481)
(1.226646100144321 0.02932174681430115 -0.1489857038047682)
(1.146607205600106 0.001965316635894367 -0.007720270176758115)
(1.14469444214529 0.005868530993648448 -0.02298066384259739)
(1.12994424143993 0.005149239970464693 -0.01979847817144371)
(1.148418759955339 0.005448641537905191 -0.02367233305936667)
(1.134847875914628 0.001606555012652458 -0.006848630944082893)
(1.133220649823924 0.004799640347470489 -0.02039945125490368)
(1.150389049081873 0.001824310582802237 -0.007952382485232921)
(1.101929203654602 0.0202699898896268 -0.07465339592352328)
(1.111102909636531 0.02297221359240285 -0.08560863375526061)
(1.101183017340527 0.02560452395718807 -0.09390426618024776)
(1.103585353799522 0.02387160983001391 -0.09675790210577778)
(1.095710990845708 0.02117133767138983 -0.08471032160183375)
(1.113808029244884 0.02139611585416296 -0.08820608246363412)
(1.104352647499618 0.01894350905584074 -0.07692561095019139)
(1.114747926299546 0.01341147754775346 -0.1085496541920856)
(1.104506078891862 0.01358420639248384 -0.0939721792490948)
(1.113291280700146 0.01510648488641107 -0.1071445015286631)
(1.124627944642366 0.01348361216422142 -0.09761271647968382)
(1.115560580482444 0.010769203264528 -0.08644504820117446)
(1.114102243957804 0.01211132044171458 -0.08529902246868525)
(1.126236747584296 0.01196321238610696 -0.09887939712047296)
(1.162924568881242 0.003389458767426591 -0.02613946812782212)
(1.167232274608197 0.0010039104207428 -0.008889526156956082)
(1.147911474543603 0.001014903145952057 -0.007581240448377813)
(1.147997263376273 0.002693676093776165 -0.02288006524271814)
(1.146109767395705 0.003034539949023187 -0.02258468218551152)
(1.165029000393452 0.003001502850408717 -0.0264671392726723)
(1.165100487841224 0.001133843987317903 -0.00877971964432756)
(1.001650280551258 2.831501317912825e-05 -0.0003729080462067329)
(1.001798921704829 4.62165136646775e-05 -0.0004206696710367296)
(1.001764547950767 4.627098892328055e-05 -0.0005893897552519624)
(1.001595374282621 5.409741348398105e-05 -0.0005079784321736361)
(1.001814486016963 3.349761396401375e-05 -0.0004271237233257855)
(1.001637067067829 3.910220506437628e-05 -0.0003675955191664345)
(1.001608012202409 3.917236747067295e-05 -0.0005152570580811636)
(1.001688275009389 1.031702342474691e-05 -0.0002271471449333125)
(1.001876942247936 3.983480057387624e-06 -8.559960114820922e-05)
(1.001864882958196 4.083410318234992e-06 -0.0002620299712561809)
(1.001707762787101 1.103949450276774e-06 -7.466649984265669e-05)
(1.001859419764189 1.223426715015726e-05 -0.0002606847687722087)
(1.00170307278873 3.341423122392606e-06 -7.429710568535701e-05)
(1.001692896637474 3.441411541237333e-06 -0.0002282517350694363)
(1.00165919119303 1.7140243060392e-05 -0.0003765064802413713)
(1.001774556575497 2.802951190999018e-05 -0.0005953797582856586)
(1.001830281261724 6.783496286205952e-06 -0.0004337094005791857)
(1.001620823730678 7.930705488611324e-06 -0.0005226754361416519)
(1.001824989724028 2.029033121710322e-05 -0.0004314997820574719)
(1.001616533245211 2.371475351591597e-05 -0.0005201873390451915)
(1.001663678281342 5.727763024743122e-06 -0.0003783221936814887)
(1.001530591083403 1.444208653623306e-05 -0.0001969572291528817)
(1.001531317658561 6.440915313460058e-06 -6.322941183498177e-05)
(1.001390037386092 1.696775444491673e-05 -0.0001708828114817957)
(1.001410542619827 3.929070745563777e-06 -5.610561571937421e-05)
(1.001399913178428 1.22669653771432e-05 -0.0001731400448094719)
(1.001519017309149 1.996236838416163e-05 -0.0001942721499419095)
(1.001543046751019 4.657576184984302e-06 -6.412907183482522e-05)
(1.001506108963998 2.403175787701347e-05 -0.0003269477148691717)
(1.001459342714824 4.603000978032737e-05 -0.0004462655145207921)
(1.001369381808751 2.829623667801037e-05 -0.0002841117553856664)
(1.001348324225158 2.840304803175463e-05 -0.0003986412678654965)
(1.001379024526324 2.045727923686221e-05 -0.0002878184061877942)
(1.001494841871806 3.321597155031822e-05 -0.0003225354329377369)
(1.001470158747807 3.330182047638946e-05 -0.0004523120388245263)
(1.00153839149085 8.734663544733919e-06 -0.0001987731450853072)
(1.001554932379846 9.276047581668025e-07 -6.504290008156267e-05)
(1.001417275108079 2.370689819411404e-06 -5.661505535147569e-05)
(1.001409913710866 2.47121984991891e-06 -0.0001754267799561074)
(1.001406565594583 7.416103599739318e-06 -0.0001746618516404453)
(1.001550952398282 2.81182069308156e-06 -6.473712647455132e-05)
(1.001542318301727 2.911928577883194e-06 -0.0001996880950648019)
(1.001513701605739 1.453903901603957e-05 -0.0003299325411074452)
(1.001481113924952 6.735875166267589e-06 -0.0004584666216761228)
(1.001354581583345 1.717691824925893e-05 -0.0004020696689393797)
(1.001388785340981 4.131040662627134e-06 -0.000291577432660298)
(1.001385517891395 1.237122226671729e-05 -0.0002903193758456374)
(1.001477446105894 2.01491835760777e-05 -0.0004564035290330357)
(1.00151752348403 4.856484944402195e-06 -0.0003314371723697763)
(1.001077436807148 1.261761293847288e-05 -0.0002014315702895138)
(1.000991912259787 1.415081725593113e-05 -0.0001790593657264538)
(1.000981220179145 1.519508326943356e-05 -0.0002521526773166673)
(1.001052243488559 2.433903746762567e-05 -0.0002768500900224783)
(1.000997200060754 1.078252044295017e-05 -0.0001806644748802198)
(1.001071328145326 1.725295852906827e-05 -0.0001990785045248207)
(1.001058258940402 1.769073884888445e-05 -0.0002800193583132799)
(1.001094833319075 4.567392597724668e-06 -0.0001214161588278929)
(1.001018434055407 1.206902026538051e-06 -3.443507157792258e-05)
(1.001014301098228 1.331688446889909e-06 -0.0001085247463627377)
(1.001103771010927 4.678398760147148e-07 -3.885256219839366e-05)
(1.001012432303727 3.938955825966925e-06 -0.0001082280307291346)
(1.001101647343775 1.418202637639926e-06 -3.870649716441631e-05)
(1.001096947200157 1.529393685008343e-06 -0.0001218473916710452)
(1.001081540678912 7.696275690483113e-06 -0.0002029077516817002)
(1.000984381630577 9.384979152283729e-06 -0.0002534711126128525)
(1.001002646084083 2.270534890136979e-06 -0.000182147273552056)
(1.001064207078099 3.614812793322873e-06 -0.0002829969463828791)
(1.00100077145378 6.690801644967296e-06 -0.000181709741541536)
(1.001062191927178 1.075518520223109e-05 -0.0002820640806109909)
(1.001083624599752 2.583272062663577e-06 -0.000203602566693715)
(1.001181997132622 8.848169087980909e-06 -0.0001354205891890116)
(1.001182580384708 3.848086962004101e-06 -4.284477646252772e-05)
(1.001276009756569 1.442445080537586e-05 -0.000150882352684179)
(1.001293556785836 3.313184809643626e-06 -4.925857737999721e-05)
(1.001284449291338 1.042772153554975e-05 -0.0001528113645675413)
(1.001174793280202 1.220950575197562e-05 -0.0001337408800449888)
(1.001189833667594 2.784954309389388e-06 -4.340380636151969e-05)
(1.00116664486945 1.485021890145947e-05 -0.0002258244437238582)
(1.001137191584114 2.867892606732448e-05 -0.0003097445738296863)
(1.001258291776092 2.412473509209455e-05 -0.0002512393639724337)
(1.001240276839434 2.426880751665972e-05 -0.0003527411794929199)
(1.001266565540239 1.743758229564213e-05 -0.0002544002342955759)
(1.001159537506789 2.050757971904377e-05 -0.0002230852101064663)
(1.001144128285419 2.073375459724434e-05 -0.0003134624655115179)
(1.001186858544796 5.362261503572838e-06 -0.0001365174936398651)
(1.001197205868178 5.54101464075978e-07 -4.395078293359921e-05)
(1.001299299846229 1.999240026329771e-06 -4.969006355552419e-05)
(1.001292995985272 2.100965184460908e-06 -0.000154744809017978)
(1.001290134154054 6.305530972803241e-06 -0.0001541007367812981)
(1.001194733660106 1.683860395086516e-06 -4.377046418146767e-05)
(1.001189310260525 1.788515443983305e-06 -0.00013705683669545)
(1.001171423092323 8.99698828182995e-06 -0.0002276226295295655)
(1.001151099382689 4.197660393967975e-06 -0.0003171517228941833)
(1.001245664816662 1.467417655650454e-05 -0.0003556451510883333)
(1.001274934185822 3.521552371297014e-06 -0.000257576668338232)
(1.001272132862088 1.054593396048658e-05 -0.0002565177345596135)
(1.001148763213054 1.254798481388165e-05 -0.0003159370315877423)
(1.001173830592769 3.007504896384035e-06 -0.0002285070530540017)
(1.304386073912143 0.001342121787338221 -0.1007650817903297)
(1.286395233086824 0.0006162941395958296 -0.1362978633253827)
(1.286096976547983 0.001852772190061685 -0.1362106341170245)
(1.304697154555688 0.0004463776423157383 -0.1008313188574038)
(1.316471383443215 0.001361610253700168 -0.0617916141466471)