/*--------------------------------*- C++ -*----------------------------------*\
  =========                 |
  \\      /  F ield         | OpenFOAM: The Open Source CFD Toolbox
   \\    /   O peration     | Website:  https://openfoam.org
    \\  /    A nd           | Version:  7
     \\/     M anipulation  |
\*---------------------------------------------------------------------------*/
FoamFile
{
    version     2.0;
    format      ascii;
    class       volVectorField;
    location    "0";
    object      grad(Phi);
}
// * * * * * * * * * * * * * * * * * * * * * * * * * * * * * * * * * * * * * //

dimensions      [0 1 -1 0 0 0 0];

internalField   nonuniform List<vector> 
12689
(
(-1.041563087598161 -0.003009449006666794 4.828698732788284e-05)
(-1.138788069862205 -0.00468800931997483 -4.027774623448894e-06)
(-1.129355848792229 -0.004674766383294656 7.018809229708287e-06)
(-1.133242057587763 -0.08522295598487736 0.0002244622515724431)
(-1.174024581363106 -0.03380607519338015 -0.004968418842091495)
(-1.128360492467207 -0.100720114438562 0.0003674435275083576)
(-1.172734855830334 -0.03157962456905808 -0.003944040361026895)
(-1.138888717746965 -0.03435836349154619 -4.738922519764377e-06)
(-1.166457468878626 -0.01157663363454212 -0.0007259607556593788)
(-1.138887714238923 -0.004933044618585226 -3.568287315593008e-06)
(-1.138555505612392 -0.03607411744112356 0.0002558580762028499)
(-1.171032703265052 -0.02906189432834466 -0.001683504729223474)
(-1.168213571142817 -0.01255777054485444 -0.001713511423232566)
(-1.119503444760898 -0.08032515479722437 0.0003525006023913488)
(-1.126513334423363 -0.005421158976720871 0.0005758390952963915)
(-1.10758990202993 -0.08518753533600618 0.01428062669382196)
(-1.058003997755649 -0.03993516357341927 0.008667612509106793)
(-1.074188128371669 -0.003025582361997306 2.664905667722434e-05)
(-1.06239580599834 -0.04276023079388538 0.0001071118928032529)
(-1.069879422106456 -0.00383805399850559 0.0004368010408228414)
(-1.114140108443785 -0.09341787936150328 0.000486008149981845)
(-1.100202068770907 -0.09616665147268925 0.01766128540025095)
(-1.055094395207436 -0.04570668315869776 0.009549236327841)
(-1.059468050185853 -0.04949166512914754 0.0002919680049432609)
(-1.1762316151759 -0.04313565016133889 -0.004978128655518063)
(-1.138614348000701 -0.04548598990849855 1.637935934934234e-05)
(-1.130807258029262 -0.0883217978012675 0.003217740533100378)
(-1.183754495716524 -0.06765353426392205 -0.002892928232317495)
(-1.137954329853373 -0.04767222202288893 0.0005908470113870404)
(-1.184569928422737 -0.07380338273321722 -0.006473196038009763)
(-1.174642293543352 -0.03964124027844499 -0.002143114375910748)
(-1.145486557644293 -0.2288908352634495 0.00995779983335467)
(-1.096611137114493 -0.1474016391103373 0.001073840081347379)
(-1.125073483367676 -0.1036884649030274 0.004879003590953079)
(-1.19114306147317 -0.1115118198210295 -0.002866412568959535)
(-1.091297907571197 -0.1471403817981958 0.01241245435736219)
(-1.18919074496729 -0.1213556824427743 -0.005593535824250567)
(-1.180520648693918 -0.1799177046245528 -0.000424841957518992)
(-1.134860057041621 -0.2330410394295563 0.01688059415822067)
(-1.122736806363311 -0.1053519675171245 0.007168933884845405)
(-1.087917652682634 -0.1463834404036937 0.01681456660506814)
(-1.186795371895973 -0.1295601429234796 -0.005468900175272577)
(-1.177378928443149 -0.04621830088442862 -0.006205677308780525)
(-1.12901617996613 -0.09018167411828217 0.004914471647644221)
(-1.137380393217238 -0.04909857943088888 0.00115731439545384)
(-1.18474190055351 -0.08633560263819134 -0.00812033475223883)
(-1.172369894115335 -0.003051090326517339 -7.38436826324485e-05)
(-1.18007087638293 -0.02377295551780671 -0.0005192024702745806)
(-1.211272172640929 -0.07642086495236855 -0.001196271974625261)
(-1.185482591833644 -0.03273960073644717 -0.0006817733830084691)
(-1.221941972489208 -0.1019940778277276 -0.00132384697273913)
(-1.182973218252311 -0.004279562382339784 -0.001897858410886084)
(-1.179527257792813 -0.000717603953537405 -1.982856366327651e-05)
(-1.182016785563528 -0.004928345851300652 -0.0001625505906888369)
(-1.180332321690865 -0.001013143942273153 -0.0003073512493858135)
(-1.220088635176349 -0.02581767516446399 -0.008936605194521555)
(-1.249130654329351 -0.04241835345710972 -0.001019699260027366)
(-1.25207913573801 -0.03916706806731123 -0.01267540261319184)
(-1.219055986053792 -0.02600121566548935 -0.0006949698388039713)
(-1.327209304977595 -0.09170943956169431 -0.0214539895304308)
(-1.262958361548804 -0.05103509371582127 -0.001107012964029025)
(-1.264575814583905 -0.0518919274481351 -0.01489322836964372)
(-1.322336097935194 -0.09705902048573171 -0.001665680125097991)
(-1.18446485831021 -0.006536833133244014 -0.002575296899584409)
(-1.191838929968219 -0.01179417569295276 -0.0003670327099848547)
(-1.193113094547196 -0.01066500243640322 -0.004401790637805441)
(-1.183719951666551 -0.006499171848143622 -0.0002034063103593937)
(-1.213645036023852 -0.02032490141811596 -0.00768231716697564)
(-1.195704004619075 -0.01397321740161831 -0.0004156648056360354)
(-1.19651008565882 -0.01380704601081787 -0.00525306753496318)
(-1.211796133863503 -0.02221757259435591 -0.0006311634265748033)
(-1.352191043943587 -0.1362750919629256 -0.02596777593069749)
(-1.349725614132484 -0.1267700496686759 -0.001745833125841053)
(-1.355562708989764 -0.1469611032384563 -0.02713212588675746)
(-1.181717415031704 -0.0001334484114335085 -0.0003140874339142503)
(-1.181483577382551 -0.0006771266864116272 -4.271518358744425e-05)
(-1.248297355065408 -0.001937385282598442 -0.005683300835104435)
(-1.26085435006813 -0.01292057389233153 -0.0006085919902944709)
(-1.254816908886615 -0.002151021300417536 -0.006244457723812005)
(-1.240756386450598 -0.009902987274971929 -0.0004906525636087514)
(-1.301132481205576 -0.003964346045553538 -0.006300614509721971)
(-1.268962384320062 -0.01426705224137555 -0.0006449169448940693)
(-1.270579642026183 -0.002612359697749889 -0.007203204293218362)
(-1.299134626566084 -0.01950448297717819 -0.0008209768410573481)
(-1.191735016136924 -0.0005208084545675577 -0.001835407089592478)
(-1.194841260952061 -0.003472724204856375 -0.0002052062338839232)
(-1.193409340027383 -0.0005735768403259414 -0.002061561885829845)
(-1.189674712581682 -0.002660346999014177 -0.0001583612586992102)
(-1.204601178314228 -0.0009738187527525739 -0.00207738922398377)
(-1.19689364441083 -0.00378673364071109 -0.0002194779339524146)
(-1.197374184133374 -0.0006818668141563086 -0.002402786551705385)
(-1.204190458273547 -0.004806676419901296 -0.0002742051612648109)
(-1.530881672683262 -0.08836071112010221 -0.0311609381308677)
(-1.528689804810978 -0.08986800028564253 -0.001762144363418486)
(-1.18215592508129 -0.0001842229440549854 -0.0004122061289542765)
(-1.183905064319365 -0.001493919552937795 -9.24622152052906e-05)
(-1.183497171256732 -0.0002309427929902463 -0.0008739369791293839)
(-1.181919914064953 -0.0008820995298603177 -5.377190769498508e-05)
(-1.235947718383686 -0.001840788433329037 -0.003530243851678026)
(-1.221118988903339 -0.007131564158537006 -0.0003783190005581947)
(-1.226054473670789 -0.001563658736619203 -0.003092072676430487)
(-1.235192113651169 -0.00907530251702824 -0.000464209794246781)
(-1.314090615910522 -0.004582671560186807 -0.006836514566336387)
(-1.36127741713658 -0.03279174683292788 -0.001157646147688725)
(-1.346416890287369 -0.005295633756808647 -0.0120120451656632)
(-1.311747804523165 -0.02200263823633679 -0.0008742548684254576)
(-1.188535372238599 -0.0004851599009797463 -0.001099712867716548)
(-1.184802306102531 -0.001717563650959578 -0.0001040170320885422)
(-1.18505816852664 -0.0003553977864103595 -0.0007965943280655822)
(-1.188253549910575 -0.002402743344301461 -0.0001457516999947179)
(-1.207483486344463 -0.001073740918583236 -0.002228151081391956)
(-1.217159433777343 -0.006573058979752207 -0.0003577838631562089)
(-1.217697843408533 -0.001332556753463582 -0.00271513277094914)
(-1.207050344169762 -0.005212392248185057 -0.0002909743575699007)
(-1.485868827930702 -0.058776118874943 -0.02309291425982991)
(-1.383378062443663 -0.03854729162048775 -0.001230939276329254)
(-1.388538744601984 -0.008128394240705916 -0.00991749770557222)
(-1.479902493942762 -0.06919355522358833 -0.001693826760668021)
(-1.69381242543334 -0.08165985598508402 -0.1201981680388465)
(-1.649441073871123 -0.06957637733252466 -0.08452928973689487)
(-1.17956264912727 -0.006685564533252309 -0.001320679283166877)
(-1.177910386055565 -0.001047078297187001 -2.506339501748383e-05)
(-1.173609383579631 -0.009360135215262154 -0.0002167338861884118)
(-1.172571883809456 -0.003068059574571798 -0.0003280817618962492)
(-1.173816470900023 -0.009377587874134393 -0.0009770097207922347)
(-1.180228532032744 -0.0066747126278368 -0.0001755517808573765)
(-1.17802527781879 -0.002187195044353017 -0.0004440141996837686)
(-1.182732733549548 -0.01157294452029456 -0.002241166657354769)
(-1.180253974951174 -0.02382557978311192 -0.00233997960934709)
(-1.176149017698844 -0.01614366765797808 -0.0003647587906914148)
(-1.189406892347102 -0.01600020108220433 -0.0003985637417632459)
(-1.176351158137919 -0.01617089151060964 -0.001644966891706422)
(-1.187707345147344 -0.01714884743352899 -0.003236609118476667)
(-1.181828672630587 -0.00895414000594902 -0.0002274490771667457)
(-1.216928038127381 -0.04356348802941876 -0.007057917728970444)
(-1.240254556614126 -0.05599975332045944 -0.00105913192055311)
(-1.21079399107476 -0.07697383481248969 -0.005326289068954767)
(-1.201156760220532 -0.05778161158796923 -0.001028464145747058)
(-1.201030453641716 -0.05810553274345148 -0.004603973634913085)
(-1.233306892316308 -0.05943409211249855 -0.008744975392214461)
(-1.214235695622444 -0.03521764498193652 -0.0007571942485411894)
(-1.204314879416118 -0.03229860653358171 -0.005601236877977152)
(-1.185622284219069 -0.03284048381473205 -0.003068706520072278)
(-1.192495055389447 -0.0437360480328827 -0.0008527390546449671)
(-1.19299876559482 -0.01912563615667844 -0.0004599731807682759)
(-1.192546038926962 -0.04392036609443175 -0.003830153277778571)
(-1.194764600158046 -0.02384167914177604 -0.004342648649391569)
(-1.207702347313189 -0.02992868836030556 -0.0006800703256051545)
(-1.297065366708786 -0.1998147039625794 -0.0213435833988463)
(-1.222467725010463 -0.198800415663436 -0.007002859819300025)
(-1.278114338090272 -0.1211455119935333 -0.01235456851832924)
(-1.251684215238662 -0.06734866736577647 -0.001140792291694035)
(-1.220778256543232 -0.1029175246268627 -0.005840004555109963)
(-1.230489592356357 -0.1378163609686063 -0.001341567072420119)
(-1.254004182733076 -0.08319785120846566 -0.01061800398340799)
(-1.228066572292117 -0.1393515647020342 -0.005805907872730767)
(-1.294995914773444 -0.1201812389950135 -0.001458013569359663)
(-1.298450930680013 -0.1850844515992561 -0.01285268971581029)
(-1.230410554435859 -0.1873467908805775 -0.001127084364116206)
(-1.225993512544311 -0.1900472219940351 -0.004587333348635553)
(-1.279457147781615 -0.1968277138311759 -0.001513567528353671)
(-1.18111885104781 -0.001239203372918972 -0.0003447041414193836)
(-1.179941446023017 -0.002053468344165952 -7.052448458658539e-05)
(-1.179621224736819 -0.000700291104159489 -5.667027041233317e-05)
(-1.180038512889037 -0.002003218586104129 -0.0003308430814348351)
(-1.181222522438352 -0.001161097388384304 -4.703610786409216e-05)
(-1.180684685878185 -0.0004269343208482438 -0.0001043913392824577)
(-1.181982704268887 -0.002105989650697774 -0.0005611430484955556)
(-1.182119552144818 -0.004799414661939962 -0.0007265609303021888)
(-1.18076570028845 -0.003492088775652254 -0.000109840862850502)
(-1.183616474602716 -0.00258155811380194 -0.0001021510155141528)
(-1.180866340473838 -0.003399662355284063 -0.0004389250482870298)
(-1.183290917228419 -0.002974170562819429 -0.0008090922207660995)
(-1.181653403218822 -0.001543692212137392 -6.023096333629378e-05)
(-1.242568267392585 -0.02204495757361799 -0.004756206146226087)
(-1.259195038665323 -0.02224830440234886 -0.0006841929569995412)
(-1.249262720047491 -0.04156750315315703 -0.004504618626993522)
(-1.237460400636653 -0.03584372064109382 -0.0008785819356620585)
(-1.255568759669542 -0.02624063120882021 -0.005506691502021753)
(-1.237621841572795 -0.0350881934504303 -0.003626764551034698)
(-1.239609247497869 -0.0171965600324134 -0.0005528969779692882)
(-1.231675437796578 -0.01858494919911925 -0.00421922265539328)
(-1.219208990509925 -0.02540306444377306 -0.002882155511247003)
(-1.227524475780952 -0.03035622210325539 -0.0008038034114215135)
(-1.220352419108373 -0.01240273093406362 -0.0004248135300295124)
(-1.227668665974023 -0.02967923504864373 -0.003530796816138204)
(-1.222495624788862 -0.01586227069430038 -0.003668949107277681)
(-1.234158398955269 -0.01567125951330505 -0.0005199507382384178)
(-1.290495859220584 -0.03900680582083729 -0.007360945958082935)
(-1.267072263839301 -0.02471142640105688 -0.0007297010723707647)
(-1.263102924446709 -0.05011347911612867 -0.004535959440411573)
(-1.279367477272695 -0.061897790522464 -0.001298465069737663)
(-1.271286847581685 -0.03182732150924282 -0.00625309797054048)
(-1.279423639127831 -0.06087800519689825 -0.005803798657490203)
(-1.296118850651759 -0.03341005497790354 -0.0009264389479068433)
(-1.314439884090533 -0.04920284543645937 -0.008489294695111132)
(-1.322070658556724 -0.09598363464253562 -0.007629742459731652)
(-1.299000259744778 -0.07686689156452868 -0.001395357696739236)
(-1.354593520413101 -0.055526075779969 -0.001311049937055874)
(-1.299026724113401 -0.07583917871372994 -0.00565582251502672)
(-1.344779747514709 -0.06348696372645371 -0.01026323838431412)
(-1.30817466088851 -0.03791669560368347 -0.0009935857053778008)
(-1.19016122635308 -0.005980146523565385 -0.0015550605885763)
(-1.194439156312077 -0.006013888290782002 -0.0002278794761986073)
(-1.191956214289844 -0.0114952835367763 -0.001611158884040492)
(-1.188591673502792 -0.009903754246877287 -0.0003039423239824395)
(-1.188707111825943 -0.009647940599719705 -0.001260006182490442)
(-1.193565471118827 -0.00712984202737247 -0.001855757518343834)
(-1.189329152938367 -0.004639459193644275 -0.0001767632841444362)
(-1.187345031302247 -0.004891685232361157 -0.001305174325499135)
(-1.183827263936168 -0.006327564195090947 -0.0008358172919968159)
(-1.184505332754205 -0.002998883201428193 -0.0001161039169781686)
(-1.185898611184647 -0.008103299308028914 -0.0002599927502983276)
(-1.185068969553395 -0.003920238415512987 -0.001037341631228927)
(-1.186007784282904 -0.007894018072528642 -0.001147249862629289)
(-1.187921739222224 -0.004159525918163068 -0.0001614853622804929)
(-1.202426102472627 -0.009894520180291098 -0.00249113714299295)
(-1.196469266043308 -0.006598012728848197 -0.0002452702257096661)
(-1.195830108947535 -0.01362153751283116 -0.001728149539024785)
(-1.200251161408149 -0.01632684676174853 -0.0004885966930227499)
(-1.197627609838776 -0.008454534305726895 -0.002139632406556879)
(-1.200378477272631 -0.01592376556099049 -0.002140609096907546)
(-1.20367453471179 -0.00832121302394156 -0.0003052395029947665)
(-1.208074509884257 -0.01160265847862682 -0.002826436133192178)
(-1.211933994593706 -0.0216902188063991 -0.002765781385206766)
(-1.216454943469973 -0.01136889773937609 -0.0003994098251029691)
(-1.205581205532277 -0.01911472860903519 -0.0005437374300770525)
(-1.214701577510371 -0.01351749624792743 -0.003255492656638187)
(-1.205720399977987 -0.01865060259961382 -0.002260323814026355)
(-1.206497978017091 -0.009074411130561866 -0.0003258232879672773)
(-1.584328677595784 -0.05533085022921564 -0.03932890518770394)
(-1.608948383910725 -0.05810280497422698 -0.0633143753326985)
(-1.500919432248565 -0.1899992445939429 -0.01651592077873626)
(-1.406215916841378 -0.2388349334428382 -0.00209163560932239)
(-1.402680617933208 -0.2384719110352573 -0.008355112730707864)
(-1.485366441901076 -0.2157786840836017 -0.001432718155053306)
(-1.435795314244785 -0.1222158752014312 -0.01471195639659651)
(-1.349143903392477 -0.1258634840962859 -0.006989605640307336)
(-1.374880978368759 -0.06556956647865396 -0.001403597432939801)
(-1.379703944919326 -0.1704267114267261 -0.00211623730488547)
(-1.384193464354987 -0.08591067892780839 -0.01202865968078725)
(-1.377980387044325 -0.169588106356148 -0.01020006779230629)
(-1.458187838309032 -0.112856018842135 -0.001868810765676216)
(-1.523445904414393 -0.2604689280487403 -0.07352371144661912)
(-1.401348990475481 -0.2896987146599184 -0.03246859384191925)
(-1.400166218547311 -0.3077108166842736 -0.04488370286525232)
(-1.513967902599988 -0.2288516289409475 -0.05764687215717255)
(-1.18093493818043 -0.0002929376382760977 -1.785508082852312e-05)
(-1.180976511172438 -0.0002874438898784309 -8.120314265919436e-05)
(-1.181523850987797 -0.000662126497941976 -0.0001858787705477849)
(-1.181156670340575 -0.0004884766692189992 -2.945192077420932e-05)
(-1.181197776547493 -0.000477118073722207 -0.0001202218853928235)
(-1.260997587887707 -0.01266802419865312 -0.002569207167553218)
(-1.253517619353669 -0.0118088988840458 -0.0005619446980199094)
(-1.253653325888599 -0.01157641952537182 -0.002320051949123206)
(-1.240868469192067 -0.0097071667421775 -0.002031302336277514)
(-1.2468424677138 -0.01077376306535912 -0.00052963990124469)
(-1.246964564228385 -0.01056191079759741 -0.00223735822837494)
(-1.26912507012124 -0.01399663046038903 -0.002649615988690282)
(-1.277945842645164 -0.0157265621299081 -0.000702538086570765)
(-1.278125979297785 -0.01542969833017361 -0.002960761266475688)
(-1.299355080384387 -0.01914218594012448 -0.003458954765259038)
(-1.287949646097527 -0.0175144735379671 -0.0007487746777453417)
(-1.288155942735566 -0.01718703102964556 -0.003062706412717667)
(-1.194893745897939 -0.003399400567302693 -0.0008735759155874335)
(-1.19296158810237 -0.003193322629748538 -0.0001881622936172665)
(-1.193013373154902 -0.003125000350792999 -0.0007871889481051308)
(-1.189722461882143 -0.002604172678162357 -0.0006622036768765018)
(-1.191241944789022 -0.002913308217395859 -0.0001742844423313267)
(-1.191291742698446 -0.002852606602487456 -0.0007426184232673759)
(-1.196948680251271 -0.003707441524110408 -0.0009175963135559014)
(-1.199128288394458 -0.004099518910796123 -0.0002379678079749259)
(-1.199186188246832 -0.004014554482982829 -0.00101165922758763)
(-1.204252718634599 -0.004706185703982678 -0.001164902364884974)
(-1.201556386976936 -0.004450956230683707 -0.0002539960533656286)
(-1.201617334771678 -0.004356893474815481 -0.001061601026349391)
(-1.529914763739748 -0.08926480509432737 -0.006471775056898453)
(-1.590758403149836 -0.1214528766585107 -0.002207467847160316)
(-1.59267372191622 -0.121093941229945 -0.009612341793423424)
(-1.183947121660461 -0.001461944675027487 -0.0003964828870961649)
(-1.183128722792661 -0.00128918014988959 -7.875826569760345e-05)
(-1.183170872378096 -0.001260685291920847 -0.0003278246657492569)
(-1.181960401575718 -0.0008630796055514985 -0.0002223523095793735)
(-1.182467877409145 -0.001078182951573551 -6.711302933752452e-05)
(-1.182509338279937 -0.001055838085667735 -0.0002889633610944828)
(-1.221202557726506 -0.006986655123862675 -0.001574061390236504)
(-1.225420550627569 -0.007706481440777141 -0.0004069686463849756)
(-1.225510314348681 -0.007550969444501827 -0.001723068888397394)
(-1.235293639322807 -0.008892116131574829 -0.001964104557517292)
(-1.230099107910485 -0.008374880179023329 -0.000431201614777217)
(-1.230196603469667 -0.008204471107645821 -0.0017910369111716)
(-1.361636824665059 -0.0322366651849999 -0.004880843224295039)
(-1.342405611874583 -0.02848255816633105 -0.001036436572575614)
(-1.342746759214592 -0.02799663796103847 -0.00417445074604763)
(-1.312006830051415 -0.0216135068744548 -0.003548735286444229)
(-1.326045161888908 -0.02483979852436927 -0.0009677541720237794)
(-1.326333877245302 -0.02440159968229498 -0.004072846039513097)
(-1.184845388258379 -0.001681052504858728 -0.0004340353289753292)
(-1.185823768170813 -0.001934080108349093 -0.0001182907320717471)
(-1.185868331015477 -0.001893781690170029 -0.0005057074769764483)
(-1.188299646019414 -0.002351639874425497 -0.0006221216331091613)
(-1.186972665109416 -0.002170274859644874 -0.0001307640756009079)
(-1.187018499669158 -0.002123271680237597 -0.0005466457923825577)
(-1.21723675900561 -0.006437577091325399 -0.001516980463271981)
(-1.21351455279276 -0.006091272470405246 -0.0003326729141929228)
(-1.213589596328534 -0.005964561204349121 -0.001387191251201577)
(-1.207116534577264 -0.005104556506458294 -0.001214463648420427)
(-1.210151882306433 -0.005622763819527043 -0.0003134114090613365)
(-1.210222184621713 -0.005507416812420116 -0.001329708616655285)
(-1.383816848830989 -0.03795748900919546 -0.004887115900073551)
(-1.409549783325937 -0.04568042532251071 -0.001391232500561226)
(-1.410024885553319 -0.04499231835369887 -0.005882448821109039)
(-1.480594384497712 -0.06838049315622732 -0.007232847205378377)
(-1.441143879728501 -0.05570601608607233 -0.00147078229347866)
(-1.441764149751851 -0.05498556821156328 -0.005712642625985908)
(-1.182295843772343 -0.002079724093597992 -0.0009091450506179024)
(-1.184131350756128 -0.002853869658102377 -0.001890919842637916)
(-1.182486239585965 -0.004317637266699354 -0.001186245526640015)
(-1.181520692831802 -0.003658545415607874 -0.001417522759586236)
(-1.181040477251941 -0.003573032096184656 -0.0006791764595747829)
(-1.183612236298708 -0.002839103503230481 -0.001305817646951204)
(-1.182801021843924 -0.002103241652148716 -0.001332985466783395)
(-1.181906396438555 -0.0002633346243659901 -0.0005777891534823695)
(-1.18197794990256 -9.047073324062568e-05 -0.0002654340627111522)
(-1.182422405920502 -0.0002492020668978937 -0.0008160649848940905)
(-1.181464898170473 -9.376513157964626e-05 -0.0001863233073473448)
(-1.182790865828392 -0.0004549597240267649 -0.000967460834600984)
(-1.18467172690803 -0.0006017428756821338 -0.001940919817108897)
(-1.184132315972122 -0.0006357278071134911 -0.001373520574947237)
(-1.18331559080819 -0.0004323531119088529 -0.001370824944768305)
(-1.181425634107787 -0.001161312739712109 -0.0005527384127958574)
(-1.180799358378871 -0.001590695681650987 -0.0007760125733391431)
(-1.179851841958061 -0.0009407315048972521 -5.939645560779756e-05)
(-1.181487898251889 -0.0004634470725148195 -0.0002565967901825535)
(-1.180327279575796 -0.001642078479725328 -0.000548027074163526)
(-1.181923040159269 -0.001165120522332847 -0.0007966343004366967)
(-1.180991815521511 -0.0004480820092019634 -0.0001670187179203178)
(-1.232391148169457 -0.01795375330657411 -0.006790313715171531)
(-1.224193580674775 -0.01574405187671398 -0.008695319802196469)
(-1.229830271829225 -0.02788627373267309 -0.009872270576871661)
(-1.219111823826308 -0.02546582807455964 -0.004531539379507375)
(-1.233601679997792 -0.01817735961901275 -0.00991712373987238)
(-1.228792039508729 -0.0277662186497359 -0.005714131409096655)
(-1.22313576298124 -0.01553388859438211 -0.005924764283956137)
(-1.24570642473377 -0.004807379323227406 -0.00831194964450657)
(-1.261339283996071 -0.005475943436716317 -0.0135960492655276)
(-1.259510323705753 -0.005718571826977333 -0.009572406950716116)
(-1.247229981363868 -0.004600283444811259 -0.01181715159302333)
(-1.234238758825284 -0.004022734368617288 -0.007278597956640134)
(-1.225754052061225 -0.003281362125360803 -0.00903981278194228)
(-1.235532215227903 -0.003836703021681178 -0.01032753870364105)
(-1.224633519551245 -0.003440213879112985 -0.006366111851880067)
(-1.243416160944536 -0.02163854943148 -0.007669611089513569)
(-1.238716695320158 -0.0359061811376139 -0.01149801407623073)
(-1.258222783781568 -0.02580336734893237 -0.01294268521473917)
(-1.250712736394563 -0.03890704173467344 -0.007308846172816819)
(-1.256542855384723 -0.02539788872415032 -0.008842172632225892)
(-1.244834479386271 -0.02199403444329897 -0.01128715264646703)
(-1.237442487596869 -0.03536749957658077 -0.005678143140293951)
(-1.31631540411406 -0.04873863430604405 -0.01361018064966958)
(-1.3011859706844 -0.08001046438181095 -0.01959484953064299)
(-1.35130413387285 -0.06386543171410235 -0.02410806622048544)
(-1.324562513334105 -0.09023684365836526 -0.01267911364316357)
(-1.319599485502901 -0.05013562549541816 -0.02020710097708775)
(-1.298612873891138 -0.07830268825176771 -0.008747009340131782)
(-1.347032490586006 -0.06190680470343483 -0.01634527399775448)
(-1.297322473851201 -0.008603601908005016 -0.01296566565594018)
(-1.278638886223654 -0.006738299275792764 -0.01573999809403426)
(-1.276380840294203 -0.007005151517816823 -0.01105789293322106)
(-1.300188777707965 -0.008293407256236597 -0.01843275353268949)
(-1.291932270804813 -0.03786517307820053 -0.01177661447589333)
(-1.283222258074795 -0.05762264807333598 -0.0164093936447505)
(-1.274549207769745 -0.03201582360752884 -0.01485901216097044)
(-1.262816374119683 -0.05098847416948354 -0.007060968452772145)
(-1.272495406874601 -0.03135620634257989 -0.0100602668440062)
(-1.294478677410004 -0.03868458644866264 -0.01728368864167578)
(-1.281329530772443 -0.05703754205922661 -0.009483823031700981)
(-1.323999685990673 -0.01101908124976532 -0.01534308378711)
(-1.36428136877256 -0.01402065468119396 -0.02654544057049383)
(-1.32779522832444 -0.01069588505186967 -0.02187752011925034)
(-1.359003765563322 -0.01436168381809776 -0.01861172950581129)
(-1.187694036645248 -0.004694118961473437 -0.002107174375608752)
(-1.18594370447803 -0.003879995684818362 -0.002456708024144329)
(-1.186991464404469 -0.007237342260800438 -0.003088868322322248)
(-1.183951262432221 -0.006430504439013826 -0.001313208258362998)
(-1.185404193724779 -0.003842609793309438 -0.001680126059605233)
(-1.188259444474987 -0.004723993914902332 -0.003057905716632117)
(-1.186465330678141 -0.007262029984626813 -0.001863781676026419)
(-1.191179750005594 -0.001288599724151054 -0.002675290262845137)
(-1.195346578180851 -0.001450483741787976 -0.00448221922964382)
(-1.191803767063047 -0.001223791022421104 -0.003789764230917366)
(-1.194678222861337 -0.001529347166439051 -0.00316746925921999)
(-1.188289446015786 -0.001047533674420684 -0.002222767084276193)
(-1.186515608446122 -0.0008020209971000109 -0.002527625126428604)
(-1.185955068287863 -0.000844822919944501 -0.001784838197651159)
(-1.188877682674563 -0.0009925037435993417 -0.003143248358460082)
(-1.190532435317301 -0.005849104826745391 -0.002516830565932942)
(-1.189351729554858 -0.009829074356680493 -0.003833542108252259)
(-1.194598720260582 -0.006909449801485824 -0.004353094057209556)
(-1.192523510203417 -0.01067328056182242 -0.002611103068182741)
(-1.191132012311931 -0.005906553084635891 -0.003679147938103703)
(-1.188781358672166 -0.009692723772771118 -0.00198778867949028)
(-1.193958161150319 -0.006858717362748078 -0.002995278086126866)
(-1.208585526058827 -0.01134766306110514 -0.004568540944148486)
(-1.216193126002184 -0.0131727341765984 -0.007648268503962731)
(-1.206473092727613 -0.01889636527984746 -0.006915044652533049)
(-1.21281862387234 -0.02027290623909741 -0.004473839778369751)
(-1.21526108789088 -0.01304018315155205 -0.005246800567650093)
(-1.209421828897161 -0.01148004423583996 -0.006691463369132725)
(-1.205688340100619 -0.01865082099067561 -0.003563648864747393)
(-1.203807762881083 -0.00212667640429649 -0.004262552213499689)
(-1.199582907916248 -0.00173342674249217 -0.005224361349025981)
(-1.19885882177232 -0.001823666734440733 -0.003685957590118138)
(-1.204600090193584 -0.002019561471199093 -0.006036399150257503)
(-1.209646855025101 -0.002507885773893731 -0.004882378495294608)
(-1.217504344876165 -0.002771667637198115 -0.007921857320257679)
(-1.216519999521673 -0.002913561077442985 -0.00558890755079752)
(-1.21052505123824 -0.002387064090060601 -0.006925683345741667)
(-1.202885217231825 -0.009532940699025305 -0.004018567000130475)
(-1.201768974533529 -0.01486589581315961 -0.005902775009788722)
(-1.198747811205147 -0.008351630052838576 -0.005062321095676335)
(-1.195853488344391 -0.01362728189050537 -0.002728042757617444)
(-1.198054462507885 -0.008264989317387679 -0.003460825413749778)
(-1.203641001937283 -0.009614752076277572 -0.005848505726567626)
(-1.201083924396368 -0.01485111352043419 -0.003464504082198087)
(-1.438393380173783 -0.1199079255548242 -0.02359735324996936)
(-1.382856159075076 -0.1659375089270395 -0.02689493461675163)
(-1.392722874834716 -0.08931893688951406 -0.02895922632965974)
(-1.348605909580952 -0.1325377029514923 -0.01080071438364812)
(-1.387048754643991 -0.08565796505644235 -0.01926543295553876)
(-1.445315381643017 -0.1263138516751874 -0.03543713102614339)
(-1.380483349250024 -0.1613621919795346 -0.01759110984506193)
(-1.477651563207051 -0.02983527458068001 -0.02947139342624816)
(-1.415165521114854 -0.01985417676775737 -0.03313520457186668)
(-1.407216455836003 -0.02005073846130057 -0.02300134720144269)
(-1.490618077647535 -0.03028795931809596 -0.04354473571952067)
(-1.466493830733268 -0.1528584360129346 -0.06128890646718432)
(-1.361019971780014 -0.1540657216935132 -0.04161176827701588)
(-1.385912143661632 -0.1811121684418627 -0.03387337985399428)
(-1.400316602654724 -0.09582641639266172 -0.03913209440386942)
(-1.388584344755009 -0.1914255435432066 -0.04288415980005744)
(-1.410202572034985 -0.1038471764124298 -0.04982554781073645)
(-1.45460359910167 -0.1379853027107458 -0.04807920925936477)
(-1.534668612836813 -0.03790015267720846 -0.07664142468304598)
(-1.426065452753668 -0.02117798467795006 -0.04435407505295622)
(-1.440739795341644 -0.02331261538304235 -0.0570455948575098)
(-1.509815146458233 -0.03337593502580678 -0.05890690959933936)
(-1.18292889589226 -0.02632205475406554 -0.005782341545011787)
(-1.176280642960834 -0.01032336854502151 -0.002416773256584479)
(-1.188426147172378 -0.03640240886876575 -0.007564788792953405)
(-1.203832171594325 -0.06499296474012238 -0.01120456493114305)
(-1.220903876008266 -0.1279365040835806 -0.01609000566682618)
(-1.221484094195118 -0.1161269523945805 -0.01351893007557453)
(-1.190636899476387 -0.03962109119098645 -0.00987258660170422)
(-1.207837341847164 -0.08017277687392001 -0.01701737767521994)
(-1.196379160033606 -0.05076701428292531 -0.01421541833919369)
(-1.352949255611879 -0.2869709606914753 -0.07447307140042662)