/*--------------------------------*- C++ -*----------------------------------*\
  =========                 |
  \\      /  F ield         | OpenFOAM: The Open Source CFD Toolbox
   \\    /   O peration     | Website:  https://openfoam.org
    \\  /    A nd           | Version:  7
     \\/     M anipulation  |
\*---------------------------------------------------------------------------*/
FoamFile
{
    version     2.0;
    format      ascii;
    class       volScalarField;
    location    "0";
    object      mag(grad(Phi));
}
// * * * * * * * * * * * * * * * * * * * * * * * * * * * * * * * * * * * * * //

dimensions      [0 1 -1 0 0 0 0];

internalField   nonuniform List<scalar> 
12689
(
1.041567436396689
1.13879771931107
1.12936552395193
1.136442063501633
1.174521712677372
1.13284689054969
1.173166599516746
1.139406867003881
1.166515140136663
1.13889839783288
1.139126879137175
1.171394476684255
1.168282320984405
1.122381493780697
1.126526525736948
1.110952853884476
1.058792899514905
1.074192389655331
1.063255988656244
1.069886395511453
1.118049783163277
1.104538155966213
1.056127109583861
1.060623429652195
1.1770328281824
1.139522535546929
1.134255768613343
1.18568970471251
1.138952609499109
1.186884474956708
1.175312953494017
1.168173628357057
1.106473850747715
1.129851957296647
1.196354836650267
1.101242699884165
1.195379904975832
1.194152236074097
1.158663208005698
1.127691609898585
1.097850472647815
1.193858866975984
1.178302076256103
1.132622806146718
1.138440235038159
1.187911253859702
1.172373866662453
1.180310423690493
1.213681117872805
1.185934788178483
1.226191962383359
1.182982481536799
1.179527476248365
1.182027070912278
1.180332796525449
1.220394482513661
1.249851090363115
1.252755717290023
1.219333442226835
1.330547043208395
1.263989568499014
1.265727684463013
1.325894409012424
1.184485695529228
1.191897341334847
1.193168879252964
1.183737810742861
1.21383952525861
1.195785720873049
1.196601276249256
1.211999954185556
1.35928872775343
1.355666967537239
1.363775632618455
1.181717464307186
1.181483772190633
1.248311796000266
1.260920696832138
1.254834289845738
1.240796002739714
1.30115377547427
1.26904274849856
1.270602745670991
1.299281292408299
1.191736543304561
1.194846325180152
1.193411258490716
1.189677697647876
1.204603363213376
1.196899654755263
1.197376789133074
1.204200082678843
1.533746170359473
1.531330102218696
1.182156011301718
1.183906010486446
1.183497516462583
1.181920244455735
1.235954130905168
1.221139872165727
1.226059369830938
1.235225539823618
1.31411638968325
1.361672811365122
1.346480885648607
1.311932613773389
1.188535980023687
1.184803555611779
1.185058489553079
1.188255988116289
1.207486019534546
1.217177234566448
1.217701599528906
1.207061633496552
1.487210169631438
1.383915558317472
1.388597952185775
1.481520168175777
1.70003425384072
1.653070455025818
1.179582334635035
1.177910851711072
1.173646728931234
1.172575943522487
1.173854335536788
1.180247419158906
1.178027391935692
1.182791475655131
1.180496751009769
1.176259861972847
1.189514573618381
1.176463450728813
1.18783555104393
1.18186261460802
1.217727983448075
1.241518610144238
1.213249945157111
1.202546188302007
1.202444011205285
1.234769118716029
1.214746549855123
1.204760931729459
1.186080990140949
1.193297124018033
1.193152151338835
1.193360684618187
1.195010348931091
1.208073320866082
1.312539534637854
1.238546722576852
1.283902306124334
1.25349532072546
1.225122718007162
1.23818406791969
1.256805917700242
1.23596119402368
1.300561446180016
1.311638770866629
1.244592392247186
1.240644623982081
1.294509186073292
1.181119551419941
1.179943234968883
1.179621433964619
1.180040259585756
1.181223094032267
1.180684767682609
1.181984713634115
1.182129518214882
1.180770869274266
1.183619294295293
1.180871315776365
1.183294931585542
1.181654413080253
1.242772907969247
1.259391758178584
1.249962196471485
1.237979720092151
1.255855009400229
1.238124451530927
1.239728645250343
1.231822871296008
1.219477012921423
1.227900030524312
1.22041551736481
1.228032441319719
1.222604034610977
1.234258000758081
1.291106222233948
1.267313421711173
1.264104795285183
1.280864615947447
1.271700565566776
1.280884328873889
1.296549715621267
1.315387850411961
1.325572290486567
1.3012732767789
1.355731709995978
1.301250936336681
1.346316641043652
1.308724419581458
1.190177266242363
1.194454317633343
1.192012732381965
1.18863297238857
1.188746931890455
1.19358820886033
1.18933821508264
1.187355825109965
1.183844469302359
1.184509134664535
1.185926324467748
1.185075907672264
1.186034609985401
1.187929032497371
1.202469392209788
1.196487483643547
1.195908935601083
1.200362301604611
1.197659362684274
1.200486000424956
1.203703336072052
1.208133532295612
1.212131231505234
1.216508134315818
1.20573285251454
1.214781150390239
1.20586675755
1.206532147129745
1.585782338286928
1.611241616939736
1.512987650540081
1.426355392302425
1.422832237541389
1.500958347160915
1.441062575400371
1.355020200320627
1.376444347881232
1.390191611992393
1.386909110277459
1.388414244481545
1.462549741114791
1.547299978123419
1.431348506817375
1.434282375631965
1.532251624258052
1.180934974647833
1.18097654894539
1.181524051137111
1.181156771714452
1.181197879026075
1.26106383514919
1.253573367579571
1.253708920619783
1.240908100187281
1.246889126499887
1.247011300739822
1.269205014857479
1.278042798598798
1.278222539565689
1.299500678172717
1.288068945487614
1.28827423594945
1.194898900763201
1.192965876880892
1.193017725693994
1.18972549629566
1.191245519934731
1.191295389510113
1.19695477369068
1.199135319599835
1.199193334781367
1.204262477834555
1.20156465769031
1.20162570243037
1.532530349979981
1.595389598610552
1.597299509860258
1.183948090656429
1.183129427782657
1.183171589432556
1.181960737605098
1.182468370861193
1.182509844954004
1.221223557755434
1.225444850403335
1.225534788033758
1.235327204746741
1.230127692491725
1.230225265692295
1.362027117019619
1.342708142938308
1.343045083814182
1.312189643040635
1.32627814711238
1.326564578175699
1.18484666029041
1.185825351313333
1.185869950987281
1.18830213581197
1.186974656388737
1.187020524532356
1.217254727287191
1.213529885957239
1.213605046383205
1.20712793831843
1.210164985425328
1.210235446479528
1.384345956032028
1.410290476625192
1.410754794354648
1.482190250045231
1.442220858782612
1.442823589530958
1.182298022496183
1.184136299584389
1.182494717104551
1.181527207437507
1.181046077317272
1.183616361657974
1.182803642939408
1.181906567004263
1.181977983168914
1.182422713790021
1.181464916583324
1.182791348994358
1.184673469695122
1.18413328322369
1.183316463816835
1.181426334180011
1.18080068481358
1.179852218489897
1.181488017011077
1.180328549034634
1.181923882909289
1.180991912335361
1.232540623145776
1.224325694707615
1.230186003617576
1.219386190770495
1.23377545389725
1.229118989583957
1.223248747888337
1.245743431058676
1.261424443977471
1.259559680428022
1.247294445627199
1.234266775930792
1.225791777463465
1.235581334114319
1.224654898189736
1.243628079070995
1.23929032491845
1.258553892566445
1.251339093175186
1.256830610777322
1.245079924516834
1.237960827912479
1.31728771898902
1.303790843212447
1.35302729257276
1.327693224960556
1.320706140673707
1.301000852188671
1.348553354949291
1.297415789795659
1.278753515569125
1.276447961576987
1.300345878866252
1.29254069658469
1.284620177869454
1.275037837175882
1.263865054710513
1.27292143558121
1.295171907273671
1.282633459150736
1.324134433837852
1.364611626930059
1.328018522538282
1.359207081078
1.18770518211354
1.185952596005381
1.187017546963641
1.183969453878824
1.185411612467962
1.18827276931262
1.186489018770433
1.191183451232693
1.195355861725276
1.19181042081493
1.19468340071476
1.188291986648405
1.186518571794277
1.185956712266864
1.188882252132465
1.190549463905602
1.189398521666703
1.194626633041742
1.192574131517644
1.191152338810264
1.188822534663778
1.193981618062911
1.208647431976007
1.216288508813497
1.206640880270127
1.212996298585176
1.215342374409182
1.209494823184718
1.20583785235472
1.203817187980242
1.199595536705843
1.1988658751441
1.204616907584162
1.209659307814785
1.217533271724939
1.216536326610091
1.210547216278704
1.202929703546288
1.201875411913612
1.198787592398481
1.195934241760165
1.198087969431302
1.203693611356856
1.201180732364915
1.443575513029723
1.393036162871884
1.3958844921284
1.355146042864577
1.389824698170248
1.451257224545079
1.389993338725976
1.478246545366513
1.415692615743058
1.40754724526801
1.491561516632207
1.475712094920618
1.37034417189411
1.398106395582692
1.404136962892709
1.402372729477176
1.414898623731595
1.461924479802809
1.537048496559842
1.426912214029422
1.442057154141169
1.51133244308196
1.183235842415662
1.176328425115811
1.189007598244819
1.205637393707792
1.227694144244198
1.227066266716884
1.191336864714644
1.210614847775723
1.197540171526817
1.385052439045085
1.32014933071213
1.382884833545666
1.401106806528165
1.462631512148489
1.384885631122425
1.301021079862128
1.249376985128903
1.185443111357527
1.18408159249088
1.187041484734406
1.17834855563389
1.380096482507697
1.284529280688909
1.308606811010311
1.361404337000239
1.867866202219768
1.804699681901396
1.773369051744706
1.89610445245818
1.668710350159199
1.496118635077765
1.69997979637207
1.579808108161689
1.833546936502293
1.556980159093289
1.82308169125342
1.80345829020955
1.708287553686119
1.651514381301163
1.290710001923217
1.226651083094309
1.214271301184572
1.307281806406248
1.267590839228412
1.225828075764805
1.265156040842829
1.219224024124221
1.245896386985663
1.196979376587055
1.234288459326492
1.312334462375239
1.367991988375969
1.50121344777492
1.439206748463119
1.351210523811807
1.524620185878276
1.460671605398493
1.362173409269193
1.562902287908173
1.377196138165558
1.404935249796705
1.517455088665368
1.4026463838594
1.532067897261363
1.506073771409742
1.56234411848814
1.428596130028227
1.408393770682251
1.586762490572674
1.780231381609184
1.523429585169832
1.576773088462732
1.677054600070471
1.498704305833681
1.34005931646583
1.383168253256085
1.424548879526917
1.563105666814541
1.432732393517518
1.566264576002181
1.437433519099312
1.791838528844943
1.867141075456826
1.820613957093624
1.85563368900332
1.854701217488489
1.858683856433991
1.622762486065156
1.892266597504805
1.746988175587499
1.762569909481173
2.099570914424887
1.717939659995971
2.044323471827384
1.957858890915167
1.535241486654929
1.764532776899821
1.728871840970837
1.65300216177303
1.675147616351182
2.155564638309524
1.64541333699326
1.723019596464646
1.588205870296306
2.210042070933498
1.81628068746476
1.771360122724148
1.820654693604501
1.611959523962717
2.234691377887978
1.758713187830941
1.8820489223465
2.064425111674427
2.225849521691295
1.843474755232309
2.273128691651196
1.196789414848242
1.193224204664333
1.183671803649996
1.183923534903207
1.186802543167131
1.180971466746333
1.185188468272605
1.197891769387623
1.190172118509078
1.188446236403197
1.221675882498322
1.26439329250121
1.22803480600748
1.254808965729558
1.215054649423879
1.201680849809975
1.220656567594891
1.197483585460701
1.34763558889861
1.305011380201196
1.334350749428294
1.314934880958771
1.296238194390382
1.232892315230218
1.22700672374603
1.270745590448969
1.277531687528454
1.227536809648968
1.295206881222608
1.334790067692721
1.279522318936811
1.267936464516416
1.346207530933754
1.22016732385709
1.262083002018119
1.242627269463376
1.212943276397898
1.269238422806896
1.230878231624327
1.289572476259751
1.243915749345191
1.240013648292629
1.215173829907812
1.203583235446526
1.223428664339305
1.234670382365197
1.211737834817943
1.364532910869772
1.416860761920419
1.343532727972949
1.348337015070607
1.387627855033003
1.574406862784065
1.487525751938773
1.616373808083918
1.462091197676129
1.492791913075686
1.37685696655879
1.410744612271693
1.44385782106805
1.508733661215027
1.409040575826682
1.428324963372347
1.327551852226837
1.300011911597219
1.317846094551534
1.278293398335142
1.29351782272166
1.264519788669449
1.258396891622068
1.273974499158826
1.261925970314895
1.278733337930638
1.210615316445701
1.19871319294562
1.185304909461061
1.188291975778273
1.194169103752363
1.19082321821378
1.19976741603534
1.189944037472345
1.207205035623139
1.196089212397052
1.359129296819297
1.377870206482048
1.466185059423257
1.412727432078313
1.444173370813268
1.391800761819222
1.348724120960696
1.343527271366788
1.387083689398606
1.364698137810529
1.327454335308307
1.336434693578933
1.299032150793481
1.291641191695163
1.307577351863314
1.314751814023732
1.325297067004707
1.307823151993268
1.432104536228973
1.46204134695865
1.393351660251444
1.374322755066685
1.332807055879304
1.331998474757034
1.36697563812209
1.350107218965998
1.298672095235433
1.324049078110537
1.318590809686824
1.368525949873566
1.404312803302009
1.422782657888714
1.374226877385021
1.33042786182027
1.339955172012308
1.35977185317805
1.562859470903043
1.451857429592111
1.503410931383763
1.418460302529626
1.169675903321971
1.138875040465255
1.138824334631468
1.179047262509244
1.181592380310759
1.177493713523821
1.184178634905518
1.189368822077442
1.191599871651088
1.18619906285193
1.174992352901277
1.174837770583049
1.173533905723861
1.180875570948373
1.179270711857783
1.181095431459125
1.182764260742615
1.196470033718609
1.187256458150688
1.194618329934051
1.196753726054593
1.206794320551035
1.199291304180749
1.209755332340807
1.216210637358195
1.20375355201142
1.214503371591796
1.220144266832224
1.237648406678345
1.241815616525504
1.223659713461954
1.226041798146288
1.23521414567015
1.235933658553731
1.260108735778783
1.287092159666446
1.264800398921514
1.291280648420727
1.194218882069649
1.201778162619108
1.198887611967384
1.20281644483312
1.213872202837919
1.21931642515056
1.207487824855336
1.208000510567117
1.218136950495533
1.219796627193481
1.247471306518847
1.2285265605338
1.254590706551201
1.234888248400312
1.204882667599782
1.226205984136722
1.213475764740659
1.181145337938952
1.183810544504693
1.188221480447712
1.194692713859555
1.188994945064023
1.198786125622831
1.192688139289062
1.182616564787282
1.19324157427525
1.191208901120945
1.191531948838232
1.204049510568415
1.197435637017191
1.180927354209995
1.179506019849871
1.176972606061533
1.183618234266236
1.185375419077445
1.188819228711622
1.186942871724342
1.198611860035171
1.194794605659959
1.196801060993898
1.193871087151983
1.195024088033953
1.195610194031542
1.182187647632567
1.184834767405826
1.183481891936464
1.184344262487976
1.18451371536347
1.185723271070744
1.183014472622139
1.184465997922926
1.185229895980211
1.184435671528098
1.182759179899509
1.183265075591786
1.185702619945398
1.184005789554363
1.185396922710695
1.185577492340463
1.188111106457992
1.185229919819275
1.186808500928445
1.184025221654412
1.186659656455707
1.181454156985485
1.182589237558489
1.182147176677894
1.183434456129247
1.181769669871789
1.182257891812647
1.182984463796346
1.1877695083157
1.186679203235237
1.189035941437619
1.190008347624812
1.186077181794208
1.188684751056133
1.187604298189922
1.194260774986839
1.19960472523736
1.19637789909852
1.193798063532912
1.192343488930457
1.197962526032229
1.195786269405503
1.194019104297527
1.191962322739564
1.195494560914926
1.19299568577684
1.195052484800013
1.191164091571208
1.19660314945255
1.191197878205021
1.187148854247604
1.191185060816842
1.190093364880759
1.189850283137762
1.188734724147189
1.192629261949292
1.231728498757956
1.23544000457298
1.22577365257259
1.237593751485955
1.223426107905061
1.233612309732045
1.227642632714933
1.272345361901371
1.252705918900362
1.249301176604773
1.260612802650604
1.245791557202305
1.267655595203828
1.256611086030899
1.240267402862982
1.225403213425243
1.238895552883919
1.232800897166996
1.236071164964437
1.229956157008449
1.243568311285339
1.240930988050048
1.247029679557566
1.26087421965901
1.24955965763286
1.257320738670824
1.243243789685643
1.263892513050162
1.207684305566234
1.217563696962342
1.210634173370924
1.212097764179029
1.216534564735831
1.209073702441597
1.219205198902259
1.207663163252273
1.204197934913381
1.207438295465005
1.199982272120652
1.202408215215415
1.205650468101461
1.209633792434013
1.213901317144779
1.218456411183993
1.212742505887416
1.223715202820169
1.210674229389918
1.221233369340672
1.216100807840341
1.202872716593975
1.199727912476767
1.204722400696483
1.206040931113398
1.198634412717096
1.200931101203466
1.204085182780022
1.339662158997996
1.306942636180972
1.359090190763641
1.325285398435101
1.367033855859093
1.331279797466546
1.311698481854882
1.291963258523209
1.300844843096562
1.316372672415755
1.309117574134986
1.274610988806613
1.286184882219484
1.295645782685786
1.287512528396149
1.277872720966435
1.298709996869561
1.303334533861961
1.271168303102828
1.281569763358616
1.291022076028432
1.376967459932192
1.352713838130821
1.389191327049166
1.323575867887535
1.348166113038273
1.338778164009127
1.316563391999846
1.278057116734233
1.274664819759459
1.285117131053028
1.267153509763324
1.253002371238737
1.261342844687443
1.258100240241784
1.252400728390707
1.242484323534046
1.236215724271553
1.234643119641433
1.247550463969301
1.246517701719483
1.240347795220289
1.30450707972232
1.281665298616361
1.270772886196933
1.282897284562615
1.293735033222742
1.274189078896959
1.263353148829283
1.257291934411217
1.251239312852661
1.265351878409018
1.258225995970613
1.23860248543755
1.251614794947806
1.245271544207875
1.245572026395235
1.229304166084151
1.23511489581625
1.222776985238912
1.219218632257956
1.226399870097888
1.214755768113894
1.2063162793257
1.209672251070437
1.205946897179335
1.211973760829973
1.212160924162396
1.208825387588571
1.221851234987162
1.215020560130082
1.226683116996112
1.22652869065756
1.218720147924741
1.217934474500651
1.230249145751532
1.239541910630075
1.22553685280903
1.230393453610798
1.225082936197402
1.221057668306593
1.234472028583891
1.229930434605951
1.218015994178362
1.208525206042186
1.218610463889132
1.215199996020923
1.215229945346523
1.221874720774793
1.211752848855849
1.213230756278773
1.20530890485172
1.208321978217016
1.2022162407323
1.201099671424867
1.204299812390168
1.188844392277872
1.186664331737907
1.1858425566877
1.186890206181002
1.187152299421926
1.187436330674689
1.188338122452073
1.18987066231572
1.189640252520239
1.186640367412778
1.189963049865037
1.188140609250348
1.191428302375821
1.188283837366297
1.191863015098466
1.191957660842769
1.195876171406254
1.192339641734196
1.194165669319659
1.193490055236663
1.190164412760609
1.190791734965599
1.188730918397759
1.191417082792885
1.19248533391445
1.193039819838004
1.189313681027959
1.190263538557274
1.199699174518303
1.201544418545329
1.195452644842367
1.201855000138958
1.197583925926835
1.203832791312347
1.197458071276176
1.196290126110909
1.192824031804806
1.191689657474051
1.191721120796724
1.194313662682163
1.194652374574467
1.193559514625494
1.202151716892845
1.20440286691196
1.209612248113846
1.20237496311346
1.206494463845692
1.199682237807751
1.205014138419537
1.198576975081391
1.193723811025126
1.199293220665211
1.198222812834861
1.196860136877673
1.201236194854237
1.195718411030093
1.181088324482143
1.181048828063507
1.181310766056808
1.181600965291653
1.181639672740716
1.18127165482101
1.254304152045437
1.261608872483522
1.261745384222836
1.254177626172241
1.247542438875269
1.241277438365303
1.241383091455181
1.247427271119594
1.279114516406652
1.269825722365279
1.269978212434638
1.278944969025848
1.289305770278862
1.300516878562611
1.300726459120234
1.289114903260142
1.193181117066788
1.195022040308487
1.195072196319497
1.193132234664956
1.191451551003434
1.189830117537992
1.189875595226516
1.191404377498432
1.199385851571932
1.197084793911266
1.197137126418788
1.19933103411144
1.20182988807936
1.204422777880954
1.20448225736053
1.201772458080337
1.623295544507675
1.54565086942421
1.546890699247034
1.620774890125302
1.183294109623233
1.18403454481349
1.18407483858945
1.183254102571134
1.182629565678514
1.182039677007757
1.182078540996741
1.182590100290498
1.22588606164035
1.221465900632105
1.221544980452402
1.225801257193381
1.230610220720251
1.235660014721943
1.235756868408571
1.230518895873556
1.345179560210954
1.364393891686293
1.364732514283623
1.344870186133496
1.328316824282127
1.313395988948335
1.31363592589516
1.328046709987351
1.186003599360084
1.184935708362748
1.184976840277129
1.185961338569191
1.187158619169059
1.188402557179794
1.188446626557865
1.187115279990271
1.21387594699433
1.217477351300538
1.21755117994947
1.213805409249755
1.210487049178581
1.207299649592541
1.20736246163735
1.210420544760785
1.415333928577814
1.387386322665449
1.387779582433962
1.414892264230858
1.449064182970287
1.490703833396055
1.491404907028142
1.448516924225721
1.614079592651693
1.482847837564754
1.316420661018517
1.554301706521848
1.626318401421119
1.23792695162628
2.46659681654526
2.065661065889714
2.341885740460555
2.29933675555295
1.637913245233802
2.039900654626304
2.191358209823798
2.27460751869677
1.733071526727133
2.335102814910589
2.017526793441726
2.047081921211269
2.156931147788872
2.004538691641025
1.180985344568268
1.005984619557845
1.182570783174625
1.060695691011432
0.9954617689664227
0.9132507406390121
1.141697921714895
1.173490678075311
1.015470896915924
1.017607682404984
1.214410551259452
1.056553147228435
0.9803737023896998
0.9294545188773987
0.9429616248846102
1.185000841283409
1.185776480754213
1.186258321425059
1.184532085796812
1.194975211107641
1.200442355980554
1.198759530626436
1.196534458113472
1.276186437798356
1.255333022869495
1.271134218113162
1.259480602383128
1.208688713833788
1.205135305408538
1.2032974287103
1.210720003357858
1.297125945225179
1.323983755714552
1.315780915026345
1.290798880853727
1.282424159508433
1.290175171924962
1.270815567977888
1.264563583293669
1.216028820685487
1.207322891236468
1.213146122207874
1.209911033184377
1.189462014656197
1.18723981262548
1.187737613646523
1.188944924428549
1.200550087112675
1.202439674952878
1.198380581794342
1.204793967867609
1.1957913576115
1.196393341590297
1.199474680426392
1.197612618545036
1.182643561302973
1.183093831057568
1.183950776781414
1.183492504461922
1.185946661400917
1.188711344704475
1.187385048747297
1.187231169826703
1.185377911492145
1.184000435911234
1.184874703334166
1.186279160572641
1.196235282747302
1.192629551001273
1.19368084193876
1.197365569846416
1.191856392792554
1.190728158551863
1.189343664765772
1.193317427647444
1.187251738264437
1.189653134160472
1.190641328536634
1.188190596824444
1.263875338221943
1.249331030161378
1.251990319021195
1.267085177591001
1.242375122776433
1.23461287746987
1.231640545715059
1.245853202739408
1.227283547042239
1.237308294482498
1.239557330621004
1.229221037983242
1.215081264168841
1.225226591537402
1.222645976178733
1.217355666982669
1.200550128479061
1.205664415496529
1.207015504274656
1.201779015560822
1.218841308359569
1.211710645721106
1.213214386896427
1.220535995795327
1.281781942727535
1.304205424399237
1.309299535129625
1.285760820905975
1.410409700676822
1.394205771360284
1.359891497412962
1.348727865981076
1.371866511977913
1.33315713452368
1.381595954281214
1.339983566786295
1.312005373464637
1.288054734261332
1.299815333591068
1.278496113397072
1.255251892862397
1.23821160341263
1.250088638006477
1.242564853026473
1.254174067039117
1.269233729042866
1.26152783301348
1.247808129436515
1.220739115415169
1.228231833180801
1.248363629678785
1.237320830875037
1.223339958909174
1.228335131576777
1.220082835643706
1.232069610370755
1.219431500034891
1.216529764681637
1.223460529582904
1.212951225034369
1.241898897200638
1.227206466783219
1.236532683151765
1.231817350058412
1.21454667874843
1.209463257372058
1.202026272932081
1.205325285122393
1.190507202898692
1.190274077446131
1.188743225014508
1.192099273494545
1.1914546314663
1.193184264570816
1.193752468342607
1.190914369868792
1.192547310819384
1.196656995630121
1.194902478490712
1.194212958225915
1.197067551600768
1.192361489560546
1.195043868191622
1.194272200699055
1.203079597494039
1.210773933202033
1.207548326590394
1.206029511163815
1.199420520044826
1.199057488676039
1.202154897100586
1.196488776231877
0.9571821190569474
0.8575820797306717
0.93724844141168
0.8976269188499257
0.8781779254826252
1.616910297880784
1.491061400212956
1.478100143240402
1.380730798292418
1.377066694906479
1.453443641750652
1.374231768622364
1.356865436382021
1.503799752800744
1.309055071474452
1.274649132084103
1.460276016646616
1.393035286475172
1.411322946545382
1.329256793845706
1.368407623389654
1.352935861620629
1.347901587828337
1.315275227425144
1.308794349403724
1.333817683434897
1.306508994087362
1.288080726041962
1.284651074774034
1.256934849673384
1.272493357526252
1.267200921771203
1.290688619378826
1.271539551648803
1.245887369586535
1.252905144492317
1.241362614824043
2.041840954369559
1.331979025947061
1.191445669743976
1.277323670149537
1.173467922132032
1.064226524205802
1.090500782103426
1.010555350604661
1.038016160626695
1.233945541779351
1.256273585824579
1.243977330201547
1.746708765648535
1.722160457169932
1.643891142029942
2.021751374861279
2.133332772129884
1.766499266139734
2.490453676819572
1.651193666101074
1.19984605948016
1.199686449036044
1.201779082319673
1.197646246575402
1.198575280335384
1.195955975292833
1.196616845603446
1.1979507141151
1.234873029394683
1.231803212035426
1.219534714455334
1.227345923156302
1.223983798566691
1.212196597558493
1.214351901028672
1.217491187253682
1.208907678972771
1.207870313280087
1.201838195558366
1.204441045469695
1.20542617367269
1.19943802732342
1.198794661562517
1.200742218428095
1.202736135163145
1.225737566489138
1.213486692953339
1.218994136168194
1.209021417796526
1.205473583918644
1.00759256221579
0.9780162753859942
1.0478914090086
1.039250394396215
1.06847059961592
1.039889180372353
1.038386933697312
1.048732103068739
1.062638339502444
1.148624583277432
1.13893301448881
1.148137302016861
1.138826665329721
1.138952454951657
1.148511062102617
1.148258959405524
1.12885525794282
1.129039782248537
1.128173563370892
1.099406612428926
1.102669456968844
1.100518571451292
1.101742476498829
1.152824932744917
1.138409889353359
1.136102140982923
1.152608124117988
1.138181207198786
1.15232774815595
1.152966927483956
1.171622683742951
1.173292018713538
1.176112086045167
1.162663064053141
1.161008889778564
1.163299800054497
1.161823323856086
1.145035601578186
1.127002166955205
1.132372167196969
1.150526571411703
1.126377740354884
1.150061193177784
1.145729557212695
1.170236680769186
1.172112377803279
1.169175112952854
1.159657586156713
1.162030663173466
1.161493983140153
1.160263532471131
1.14932108509921
1.139163545434186
1.139375320369923
1.150206378712572
1.13916343713262
1.150274540180324
1.149224438177515
1.165547643000582
1.16520052580652
1.16616570435364
1.157948269406804
1.157064533629431
1.157721254850891
1.157296072645709
1.148836164267188
1.138868613315159
1.138974336530584
1.148798838150316
1.138975040815915
1.149120597760394
1.14848725059908
1.149497277032017
1.150519680309167
1.139293002307735
1.139081739682924
1.139145863388576
1.150390850841276
1.149723760082038
1.168459340402068
1.171038663389427
1.168105592109945
1.159233603760309
1.160909582278371
1.161109351524775
1.159015897341928
1.167306983836944
1.167224167524456
1.166252402281486
1.158392901845435
1.158409562406409
1.159036028033453
1.157750002279654
1.128239131374823
1.120196793938592
1.127302481718526
1.097704318610935
1.090445406693297
1.08879284580307
1.098934514967824
1.128067216705188
1.124210345424431
1.127618222873552
1.098627651352114
1.097743704362991
1.094819995250905
1.101083209742407
1.12070849087227
1.121872108029209
1.123599273804557
1.096852334161019
1.082716379303877
1.087684141412731
1.092767604012614
1.088770026002666
1.075681520384937
1.060831572294997
1.066138173544519
1.069042993958704
1.079977370355115
1.084966375380903
1.091315343935117
1.094712818841423
1.071947456328971
1.073233633473661
1.070971888802251
1.092421004627843
1.093742424567465
1.08958508982314
1.082411269864141
1.062754033347875
1.070997219791752
1.069686600827717
1.08094891077843
1.090781728565039
1.090550361957659
1.089762054742228
1.067447340800908
1.072616595844948
1.070299771220155
1.086923395258005
1.093067569711047
1.09328577385113
1.115322188122352
1.089345884836003
1.065861487907902
1.08606805796431
1.084290857425241
1.067684627043769
1.103669819205222
1.091085562532447
1.094553349821125
1.064677671615199
1.077957485024884
1.083111758729919
1.059839204309714
1.059515156220935
1.071408606160912
1.049951520176464
1.058169998202717
1.050808570942877
1.075767284991736
1.055548895613305
1.060460049417091
1.078301757455246
1.055975776130163
1.053170127976902
1.052666367224976
1.076773319704482
1.061860532332127
1.181709123137042
1.176016610547622
1.180798342144273
1.166357024220316
1.164211261851497
1.163795396479747
1.166569622856188
1.152318838688652
1.139294373347659
1.139444848101994
1.151325781540494
1.151349314887682
1.139152237457149
1.152362567322296
1.152503287876778
1.135390802526096
1.136902548991993
1.150703684493156
1.137695164667675
1.151931954735657
1.151720946975287
1.191445100685739
1.191304847030469
1.185422995183908
1.168814613226686
1.170973921945808
1.170839481327267
1.168797715204483
1.15220111733853
1.15134932883996
1.139267572545384
1.138322121851733
1.151372022022735
1.138842763681695
1.151953196613211
1.191884763767562
1.186212195945335
1.191694435271213
1.168808873344896
1.169875436335245
1.168690035529444
1.170514652607143
1.180146804994159
1.174962941592845
1.179820443307224
1.166163021829699
1.163313669820766
1.163480979116513
1.166051986510969
1.187195729455103
1.191581549847552
1.17498452748017
1.158422707177131
1.137888664672084
1.142763213279034
1.154689450950421
1.13616966773478
1.118322720165861
1.10559820414017
1.123812660049384
1.12265233832321
1.11755385481649
1.137112631930942
1.143588595069496
1.131390445094118
1.123131202197439
1.147478702505827
1.125099856357983