/*--------------------------------*- C++ -*----------------------------------*\
  =========                 |
  \\      /  F ield         | OpenFOAM: The Open Source CFD Toolbox
   \\    /   O peration     | Website:  https://openfoam.org
    \\  /    A nd           | Version:  7
     \\/     M anipulation  |
\*---------------------------------------------------------------------------*/
FoamFile
{
    version     2.0;
    format      ascii;
    class       volScalarField;
    location    "0";
    object      p;
}
// * * * * * * * * * * * * * * * * * * * * * * * * * * * * * * * * * * * * * //

dimensions      [0 2 -2 0 0 0 0];

internalField   nonuniform List<scalar> 
12689
(
-0.04863239828092301
-0.07804281533854537
-0.07963958565036283
-0.0982727074530985
-0.07977623069249323
-0.1023297304173086
-0.07716212141993006
-0.0824999358899088
-0.07007220875973011
-0.08069067863070223
-0.0850612625652319
-0.07408445778942731
-0.07289309586572405
-0.0937878623441049
-0.08967656008868574
-0.09359779449480453
-0.06002618221736884
-0.0704203483560378
-0.06218522654226564
-0.07045616036043534
-0.09546510991159957
-0.09112104386514359
-0.05658186463895316
-0.05912354108284797
-0.08122225459220879
-0.08553630325047371
-0.09941376244597613
-0.09138843371622841
-0.08798428770632573
-0.09561446026294712
-0.07788033018764426
-0.153957718053789
-0.09755068081166608
-0.1024080205273136
-0.1171591991867704
-0.0924706273116956
-0.1219293621137671
-0.1524122222820674
-0.1463599007128006
-0.102218288497209
-0.089097438092773
-0.1253429303444857
-0.0840497187950181
-0.09998102756979457
-0.0895722032972265
-0.1034803683549689
-0.06525853017000677
-0.06898486790572073
-0.09545218873712866
-0.07209808753186379
-0.1125562759298753
-0.06179884512176757
-0.06068479860084391
-0.06108747283889022
-0.06142230117451167
-0.0700089316734953
-0.07869064498927734
-0.08024947896569451
-0.06903870295507536
-0.1265666714215803
-0.08425478339189783
-0.08647927144344925
-0.1198056922424326
-0.06207912946348179
-0.06278451461046096
-0.06349323875147155
-0.0613614640113727
-0.06796831190286967
-0.06353581665652568
-0.06427895692520222
-0.06714829062937017
-0.1561786057931351
-0.1458288519386965
-0.1638904987591548
-0.05984768792240646
-0.05983528869710381
-0.0696512261361061
-0.07276514828150808
-0.07090087487624169
-0.06874937571743613
-0.0807043312405991
-0.07451867322979021
-0.07401521977116297
-0.08168911402357427
-0.0609995744438877
-0.06138337562771061
-0.06120091924431618
-0.06074344476306225
-0.06256958707023461
-0.06165088780606647
-0.06168609677707031
-0.06265424313338992
-0.1847247664223594
-0.1825836482874166
-0.05989171378812903
-0.06008920357789928
-0.06010590396291114
-0.05988090685541343
-0.06743723012681532
-0.06527141317681882
-0.06578781534807522
-0.06771674653419857
-0.08383724065283929
-0.099820902908796
-0.09238131311458025
-0.08500392569598696
-0.06056264948096955
-0.06018637151302157
-0.06018693848830253
-0.06057577766503008
-0.06297123137798891
-0.06462516351319555
-0.06446907344729452
-0.06306979671547365
-0.1537019462782896
-0.1074639518106058
-0.1046602629644876
-0.1511229300180915
-0.3825933288783901
-0.3279567187414187
-0.06312582897359274
-0.0616378691297552
-0.06582215027394088
-0.06578816005448654
-0.06634651350706751
-0.06217278788337838
-0.06275492297935464
-0.06391782569184948
-0.0695500167927677
-0.067001245491373
-0.06434798858550418
-0.06753757747357346
-0.06527532061878286
-0.0625277638408281
-0.07668691077225621
-0.08465624053962756
-0.09671307947349501
-0.08421027749200301
-0.08514251289576635
-0.0862885601269
-0.07235541339328057
-0.07097803919909293
-0.07272172695088366
-0.07688171721900357
-0.06531113349098172
-0.07761569503219766
-0.06746843115443088
-0.06992745233621464
-0.1926586931183145
-0.1743310520543854
-0.1329482402440331
-0.09164086433894088
-0.114264735542712
-0.1375781599209434
-0.1030779240802046
-0.1395775758521861
-0.1328088312159734
-0.183269600308149
-0.1702692663346586
-0.1715155176368907
-0.1933252970395657
-0.06020387061571553
-0.06075779284980815
-0.06080492726713825
-0.0608774109716914
-0.06000431262258366
-0.06014731982277323
-0.06030636710075581
-0.06120376056548534
-0.06088946858612609
-0.0602775821388162
-0.06100801701411392
-0.06046096180224956
-0.06005342980176912
-0.07101050011788189
-0.07411829218694278
-0.07898536105052686
-0.07457725086944803
-0.07414198141767986
-0.07481970244585043
-0.06967457786244372
-0.06860484594193894
-0.06920502359276498
-0.07144746122463737
-0.06586758432205354
-0.07163501352650656
-0.06673838906652974
-0.06853624280327236
-0.08415113152675231
-0.07608474501659926
-0.08466371215283462
-0.09197002238683075
-0.07834896601419676
-0.09250009583935714
-0.08419979883343595
-0.09257781254964147
-0.1209067187941047
-0.103106891953684
-0.1054651858901172
-0.1038731886464759
-0.1055442633354765
-0.08802613087283317
-0.06133727156259658
-0.06166525423186573
-0.06290106851420843
-0.06219102193722256
-0.06230817451096706
-0.06181029037537916
-0.06097948078157042
-0.06096422865652169
-0.0614779218525143
-0.06038219067039705
-0.06172268254872787
-0.06067719923860927
-0.06183799352206686
-0.06079927089405601
-0.06315481103855584
-0.06195331958039765
-0.06365707678442833
-0.06447608998150654
-0.06240828979681422
-0.06459883464146875
-0.06303190787825712
-0.06409192791914395
-0.06728943512511459
-0.06516323299057571
-0.06566116606799484
-0.06526139333027786
-0.06579504935494668
-0.0634814078752981
-0.2047722496068683
-0.238043313951026
-0.2438519725161543
-0.2501289648056901
-0.2530501925918241
-0.2682660950666524
-0.1672780330563757
-0.1474942540408613
-0.1146900585025367
-0.1870777122335021
-0.1272866268426257
-0.1897048199343999
-0.1672552796702267
-0.3379832926416064
-0.2843489424206988
-0.2998352814162721
-0.3098678399188952
-0.05977026519467626
-0.05980138924791623
-0.05986341767241733
-0.05979999306314931
-0.05982930757367408
-0.07279328090210635
-0.07124895588463917
-0.07127856961444065
-0.06877632272596378
-0.06991917586797243
-0.06994663371064604
-0.07455191136269336
-0.07654778255799509
-0.07658430838214308
-0.08173975528318184
-0.07891374546633283
-0.07895949760710436
-0.06140954326297448
-0.06114603359250025
-0.06117293706608405
-0.06077042705068536
-0.06093336391656066
-0.06096035558044043
-0.0616771204261648
-0.06195046119906032
-0.06197670122845168
-0.06267961179848107
-0.06228385613495079
-0.06231011976484247
-0.1827207857168071
-0.2361692203361983
-0.2361169924105327
-0.06011689513896989
-0.06000757380225794
-0.06003567932811218
-0.05990882648247217
-0.05993844210410713
-0.05996654077989184
-0.06529709163103495
-0.06599548803682603
-0.06602133474530397
-0.06774191270559705
-0.06680682397795637
-0.06683345530871053
-0.1000266141822365
-0.09382892604219846
-0.09398337001216785
-0.08507868098512691
-0.08898194083020691
-0.08908272917345825
-0.06021403088715566
-0.0602997980516926
-0.06032752387480165
-0.06060279880165138
-0.0604292042932876
-0.06045682223044565
-0.06465005867059424
-0.06405036730430816
-0.06407638068158793
-0.06309547333758976
-0.06353378860506445
-0.06355952480550101
-0.1077785247460699
-0.1174633822046012
-0.1178584306505947
-0.1514900700875561
-0.1311793028993564
-0.1316667556330282
-0.0605376957028534
-0.06104084457472182
-0.06144221075413226
-0.06161137241964465
-0.06125234984681349
-0.06069031074546161
-0.06089083219106154
-0.06012756099435168
-0.06044264792635769
-0.06048467582483279
-0.06008218851705807
-0.06021528470359881
-0.06070092203792903
-0.06034911091100827
-0.06056965144658005
-0.06043626604823345
-0.06148206669844544
-0.06105390504577029
-0.06074427167835416
-0.06112005405687915
-0.0607925410552479
-0.06038333028466137
-0.06886613890628328
-0.06736409217267716
-0.07248334340421238
-0.06955783186959728
-0.06927102131311733
-0.07197976353870238
-0.06698819176031572
-0.06939252764875864
-0.072454877190964
-0.07199463808949297
-0.06979279417653164
-0.067369076351203
-0.06613374769152108
-0.06773675289662408
-0.06578302199889752
-0.07131585393307424
-0.07592566853412232
-0.07504053201886468
-0.07950083307169309
-0.07448963469458231
-0.07177616675812477
-0.0753165054599411
-0.0936439714471063
-0.1075122827477413
-0.1108311272701716
-0.1228989692495101
-0.09544988447880805
-0.1053110946339728
-0.1074596631941266
-0.08010783088292445
-0.07602262634764864
-0.07544159666080248
-0.08093507182929056
-0.08479179438975995
-0.09485749565957836
-0.07954489419067365
-0.08546734446396298
-0.07881495272913411
-0.08586766492028725
-0.09342084994395357
-0.08671379340057803
-0.09900204838762085
-0.08806516530727282
-0.09649267481916711
-0.06119016565369213
-0.06125444595654686
-0.06242841686771308
-0.0617227981257291
-0.06090610901706116
-0.06153556969058468
-0.06207421727782126
-0.06111235439623752
-0.06186428579085105
-0.06145492001797524
-0.06152495389328425
-0.06078713259202525
-0.06088619296797472
-0.06053711334655454
-0.06113296112098866
-0.06156313407226763
-0.06291261260490359
-0.06237351432314554
-0.06313796158367707
-0.06190634648972834
-0.06255685861894679
-0.06203276380672452
-0.06432161896167933
-0.06584876447843399
-0.06646918138394002
-0.06756261884141612
-0.06549257792379443
-0.06466888176601961
-0.06608285597726372
-0.06269565505705478
-0.06238320738885342
-0.0620461418534317
-0.06303148024899616
-0.06350816747710804
-0.06485834817481639
-0.06451723103419084
-0.06384527247132152
-0.06337710905701407
-0.06521166596116725
-0.0629735360686732
-0.06391686531707123
-0.06263288396754514
-0.06371848919767334
-0.06484429291729848
-0.174203483609698
-0.2039559158395132
-0.1375485064972337
-0.1502752579415252
-0.1309425843369097
-0.1868044865443975
-0.1945349750085389
-0.1405245020958388
-0.1174920109257445
-0.1122167634758862
-0.1530650235562633
-0.2262879719428438
-0.1736363984436008
-0.2161496413235774
-0.1472168658514571
-0.2307470883464136
-0.1578936012203976
-0.2066861010195912
-0.1974732103238326
-0.1257169979990711
-0.1339084133109511
-0.1775526888073942
-0.07256787341966479
-0.06912097576238017
-0.07604898762674767
-0.08992883614273084
-0.1281731222473501
-0.1220637684570781
-0.07894358674939154
-0.0995709462512518
-0.08814577129674868
-0.243594662633743
-0.1265136657987478
-0.2871162312231002
-0.2746298719443384
-0.204881616472311
-0.197013368797492
-0.1087999205119357
-0.0842530817017377
-0.07518845477151803
-0.07893247720715962
-0.08057459888268649
-0.07151184771339161
-0.2219169312321271
-0.09765999556769751
-0.1159290367865602
-0.1635971046906055
-0.5614689270156811
-0.4944326534502586
-0.5570975004601493
-0.5909645772872467
-0.2643115901440261
-0.1569682746277507
-0.4347544003604691
-0.455885281065351
-0.5805771817298566
-0.334799467524252
-0.5350146178838753
-0.4744046541303037
-0.5287474102387145
-0.311407529976906
-0.2253300549089008
-0.1787982387883265
-0.1772704463644605
-0.2157521640473645
-0.1829100896634855
-0.1444665119025857
-0.1650495242240128
-0.1643242678421669
-0.2015439607993727
-0.1687195039570109
-0.177253781172992
-0.2041929156354627
-0.1936001719040563
-0.2733521642727776
-0.1878977957884273
-0.2952556717398825
-0.3695658994363894
-0.3755441410732524
-0.207449846465824
-0.3779528234706631
-0.3076935820161465
-0.2510036839975995
-0.3346904393569133
-0.3030894353796747
-0.4020934263385411
-0.2785377248171129
-0.42789917226268
-0.329699028674678
-0.330062329496664
-0.4164868971524545
-0.4450052744764817
-0.1729250509122746
-0.2119642310600575
-0.3357623215999818
-0.4174859610241358
-0.297181455787043
-0.3221601719908856
-0.3714319268699838
-0.3875292805135165
-0.3271031182037477
-0.4093889371789259
-0.3166642814981309
-0.5721587662026528
-0.5563988864621172
-0.5774784040435115
-0.5294329880470952
-0.5970288461133154
-0.5669375200487344
-0.6470049685623791
-0.5487808377248539
-0.509792526931756
-0.5202764885176494
-0.6671933549095643
-0.5325338358023427
-0.6400198707288555
-0.4851591301265082
-0.3692255989917539
-0.5262129847827338
-0.3654467897673017
-0.4587103959365108
-0.2920533596635793
-0.5332435021076264
-0.5346962888827083
-0.504633440588836
-0.4314177669969785
-0.5020472655867706
-0.5204020358093566
-0.4333690421843709
-0.4903804525658222
-0.5642686956716632
-0.5530097633479748
-0.5292081091823477
-0.5410913806238922
-0.4556214206220244
-0.5472047208550248
-0.5298779282770762
-0.5126243881091539
-0.07222879610283928
-0.07189503071928277
-0.06229172584594968
-0.06427720628676918
-0.06463051155129051
-0.06192119548357314
-0.06257122521681516
-0.06633656767975586
-0.06340650285775246
-0.06490541289652166
-0.07065737180762512
-0.08616778703882606
-0.0736026279089548
-0.08132654499458601
-0.06855194853206771
-0.06716840275945778
-0.07124092602285019
-0.06478647255432299
-0.09243674054076791
-0.08209364933240025
-0.08915994004973797
-0.08432315726014736
-0.1786770816370827
-0.154003917893848
-0.1358277728270857
-0.1220403754768973
-0.1347898459418412
-0.1601340703958902
-0.1613659873896433
-0.1313568476138867
-0.09427953411182499
-0.08790548584868917
-0.1442528684703502
-0.1231194259409764
-0.1180078609960691
-0.09861814453658659
-0.106782572321657
-0.08869314916728056
-0.07506205869432415
-0.1015179864200396
-0.08116613366285051
-0.08062899362307399
-0.07508978174330705
-0.06830882292467057
-0.0725519586257628
-0.07797004870381963
-0.07294820560271813
-0.09676218399690248
-0.1144515419152009
-0.1538527669065737
-0.1113213013406978
-0.1382152912966713
-0.2318507846282958
-0.1567623364583251
-0.2730354582263372
-0.1432215891775331
-0.2525393115678531
-0.1840002954316196
-0.2614672129156649
-0.186226005937457
-0.276997266860583
-0.245841339614315
-0.1706862930963641
-0.08766132690507952
-0.08224588841620874
-0.09672597154777746
-0.09717498207153401
-0.08807484899130043
-0.08922261861248841
-0.07900038429013517
-0.08253380528552028
-0.0762377942007664
-0.07866397513434785
-0.07407373437139995
-0.07250975483981366
-0.06538796864662141
-0.0657363681967463
-0.07023526617182757
-0.06990446816805358
-0.06745460409831223
-0.06601095608764083
-0.07200404004448892
-0.07050833312907741
-0.1725803010280023
-0.1974152960759334
-0.2286347267626619
-0.1602739246423922
-0.1908941179990036
-0.1391582960047021
-0.1540793166541019
-0.09128781082050984
-0.1040701536459976
-0.09713548281208229
-0.08728680535347286
-0.1034204705438118
-0.08784160687249237
-0.1020273004515719
-0.1107238021938425
-0.1174309899290246
-0.09803157885646556
-0.09119508216431625
-0.1224253553870596
-0.1359031026395647
-0.1065621753217382
-0.1007249474302761
-0.1387030311453926
-0.1023559537316732
-0.1225782737627141
-0.111198509204342
-0.1078466858252182
-0.126129612192254
-0.09583567689887816
-0.1791404509031946
-0.1470323745098686
-0.1645964766348801
-0.1249368991268176
-0.131020253398812
-0.1412204487160623
-0.1154120154779251
-0.2138306999019024
-0.1320293568349248
-0.1621685365581437
-0.1160911346563996
-0.07528775126067928
-0.08247138663484552
-0.08675208285042528
-0.07039077084378417
-0.07072159085265241
-0.06864643843263692
-0.06494139290266961
-0.06633087031943218
-0.06802154469572816
-0.06657618046977205
-0.06853720377549356
-0.06742696150571245
-0.0668621407332714
-0.06414178555551227
-0.06377546011885024
-0.06538666337255558
-0.06575680596220823
-0.08149065908562443
-0.07401404773972377
-0.07912608701423535
-0.06860698218977639
-0.07230652358889653
-0.070429762691717
-0.07441636415809098
-0.1028688040967914
-0.08702454845149975
-0.09917350502722191
-0.07842541702065167
-0.08887355064783928
-0.09274903206972106
-0.08112874524380592
-0.1174681475187694
-0.1482087236137141
-0.1432930284405092
-0.1072869166104684
-0.1397717174401513
-0.1132920557997266
-0.1489455505751439
-0.08288458937888372
-0.08943121927140951
-0.08485234412065457
-0.0730493636250923
-0.07747101325811606
-0.0817737620603554
-0.07668525876172161
-0.0940318416818952
-0.1079989331395959
-0.1147659560289271
-0.09846655726956305
-0.08508175102138812
-0.1067683024361105
-0.09072719103568136
-0.09552743975462387
-0.08787127180031365
-0.08173657998145048
-0.07285944687843125
-0.07618840518458954
-0.07874005937671591
-0.07043868631693781
-0.06890468318803919
-0.07375388514453143
-0.07207309871304728
-0.07818934025352466
-0.07528391563647856
-0.07483460188888764
-0.08345315709498824
-0.07826181908329857
-0.07631862718538575
-0.07472350636401789
-0.07405776879159393
-0.07089606692226871
-0.06766934020358253
-0.0680503993585997
-0.07115656198277141
-0.07075317043600922
-0.07124550081728034
-0.07206226482259677
-0.0711531903243694
-0.07194323722140056
-0.07106946368522253
-0.07109467685627836
-0.06210639689246281
-0.0615245486413842
-0.06137756166964088
-0.0620005890126434
-0.06292054466650127
-0.06214388975495599
-0.06273769668022312
-0.06267822810777358
-0.06356215025337611
-0.06433038631465191
-0.06334031660958322
-0.06339501451057504
-0.06360130558948952
-0.06263686215472518
-0.0627677663932794
-0.06370037755112049
-0.06382033125496134
-0.06445295392535859
-0.06290670448277781
-0.06351957412840854
-0.06368695888783381
-0.06197886926132421
-0.06128200899621997
-0.06123646932215158
-0.06190785928959365
-0.06255583453143826
-0.06261177578662901
-0.06186449423468307
-0.0629198766354892
-0.06173516797023371
-0.06201313515682224
-0.0626240962706109
-0.06319830957968346
-0.0635452866281381
-0.06235046479059536
-0.06373685638319604
-0.06508372409193559
-0.06540718891080728
-0.06574162051712736
-0.06481531708302095
-0.06419641948774524
-0.06462988938920745
-0.06399048502034657
-0.06238150348938991
-0.06284703963204055
-0.06298884746466084
-0.06461944289326889
-0.06403286164015162
-0.06345176783894553
-0.06337662425826374
-0.06397755557375462
-0.06524914272541554
-0.0640154657425948
-0.06432392947847887
-0.06310834767786375
-0.06427638344463554
-0.07321476753300404
-0.06985226518681313
-0.06789888670718361
-0.07058030602934413
-0.07143805315445695
-0.07409041933193664
-0.06857172555826362
-0.07948638199602667
-0.07427580227656876
-0.0807172168909563
-0.08423871609107283
-0.0791781695161875
-0.07802740668563508
-0.07548270308492293
-0.07147896027409377
-0.07244968510322722
-0.07652669556715279
-0.07037832451971054
-0.07522554514439789
-0.06940148310311003
-0.07253999793520316
-0.07680314183279402
-0.07243788064869923
-0.07583572048742783
-0.07325972682649018
-0.08259549379533614
-0.07783043711127718
-0.07681715796949733
-0.06701768248534604
-0.06635353784974105
-0.06515710395904471
-0.06577649200955385
-0.06926838457703592
-0.06769527004729571
-0.06699209021750499
-0.06555487567377248
-0.06568320535132618
-0.06816743386044744
-0.06622712155403672
-0.06479790083257569
-0.06720692998235431
-0.06644301313501381
-0.06653907843014413
-0.07018498182635058
-0.06955773312582265
-0.06870538964539893
-0.06855931034882383
-0.06777841775381711
-0.06744002904213232
-0.0657324446787298
-0.06344806875342039
-0.06419678947317228
-0.06480555013066233
-0.06542404864930554
-0.06405304177167344
-0.06638381479409686
-0.1374689159222676
-0.1104708733828848
-0.1155653433081874
-0.09797349732940439
-0.1210809261974073
-0.1009788745554939
-0.1141093642175715
-0.08534488557940988
-0.1059314326938671
-0.09428345031405491
-0.09145924671477118
-0.0917180770294956
-0.0834241293991289
-0.1021974073279329
-0.09683961866715898
-0.08058893175519467
-0.08739119088044396
-0.08923433114097021
-0.08957095322441438
-0.08186281329641192
-0.09923846185700462
-0.1275393988398229
-0.153239584896699
-0.1360065627899626
-0.1240419098629622
-0.1091918114542703
-0.1045430560949372
-0.1184330124434321
-0.08133548345798659
-0.09182069406902868
-0.08368917584122794
-0.07880078522510205
-0.0827304611619756
-0.07697845870977589
-0.08508465510137532
-0.07535758954656993
-0.0781888774945472
-0.07155075150072496
-0.07670556930838694
-0.07382942831399625
-0.08010039612662134
-0.07291743172026717
-0.0910141862793202
-0.09596532377022426
-0.09203201040771213
-0.08410117283184629
-0.086813645169979
-0.08112749582194935
-0.08818853570331107
-0.08544965334339881
-0.07652579495105503
-0.07954622072199057
-0.07724130153084745
-0.07878588208852408
-0.08254828174088225
-0.07456482564506139
-0.07657715496335947
-0.0782253322868552
-0.07493086005319582
-0.07634219308538374
-0.07292591318496959
-0.07374704887545076
-0.06871148310481913
-0.06673026671061295
-0.06933698903451774
-0.06961130248330387
-0.06749414077706586
-0.07066867532957841
-0.06794463096719339
-0.06974489828989135
-0.07078833091940291
-0.06980891694420338
-0.07403469378702669
-0.06850861544890063
-0.07217842702073098
-0.07108780204268551
-0.07439022357990292
-0.07120201152368541
-0.07587170619106529
-0.075815970997865
-0.07388397783614967
-0.07260746530715058
-0.07289589613662995
-0.070138397083684
-0.07117304036457349
-0.07410761135185097
-0.07100234374134956
-0.07227761288261617
-0.07179033550906275
-0.06936350388263515
-0.07232137120093236
-0.07340535076641637
-0.07190343039894878
-0.07285847342690294
-0.07139200696754849
-0.07159743506671151
-0.06596304378915291
-0.06465484609198158
-0.06543998305253187
-0.06667854694239198
-0.06469163747840295
-0.0667289788834193
-0.06592899459526079
-0.06603906210062138
-0.06489987121548084
-0.06556126296462733
-0.06701916830300605
-0.06477289493710184
-0.06615822794679234
-0.0668480573350375
-0.06750811293568586
-0.06851691728125066
-0.06930274646790878
-0.07006961548655061
-0.06920145005858307
-0.06761890936339371
-0.06834793785822336
-0.06743766613128488
-0.06818006861692051
-0.06995262533167701
-0.06910914750445726
-0.06913720397320873
-0.06822950292661212
-0.06740647814509031
-0.06691328724839302
-0.0661326850983418
-0.06685219519935397
-0.0687389510547821
-0.06568549875355885
-0.0673511875807602
-0.06813157024069391
-0.066577886103631
-0.06635395757994733
-0.06508745790076201
-0.06729123178702517
-0.06533979414921354
-0.06763103106401855
-0.06633644786526081
-0.06834222915894513
-0.0702640575244721
-0.07041034256900568
-0.07136883650686449
-0.06877149755323905
-0.06964295123796961
-0.06999010290493812
-0.06801712068055925
-0.06879047893056245
-0.07084853814008632
-0.0694596475060018
-0.06913125336321531
-0.06967650085016279
-0.06778716728328024
-0.05972711190909651
-0.05969564988826673
-0.05975412846661031
-0.05975833652740822
-0.05978795158659861
-0.05972374293939158
-0.07073913222368486
-0.07214066071288794
-0.0721783494927223
-0.07070226452183849
-0.06947435064809616
-0.06832608908753326
-0.06835911933227297
-0.06943963344574879
-0.07575267516273303
-0.07379513223944484
-0.07383771765997328
-0.07570433555805588
-0.07797716263777633
-0.08050989767073972
-0.08057663320761441
-0.07791984439820528
-0.06105482807904825
-0.06125570762969435
-0.06128434391038542
-0.06102577085136834
-0.0608492867174821
-0.06063677094985908
-0.06066577563494318
-0.06082017711152261
-0.0618320019229309
-0.06151402650836787
-0.06154274374268971
-0.06180308675009596
-0.06215382145257595
-0.06248281340071082
-0.06251137516220304
-0.06212483959805762
-0.2105264973277031
-0.1667385320492451
-0.1664897542299542
-0.2112530807716602
-0.05995433508614982
-0.06000397747683106
-0.06003336441284156
-0.05992468901653744
-0.05988750404719893
-0.05980251364442404
-0.05983197513349812
-0.0598578754614579
-0.06572488227228565
-0.06500012265101307
-0.06503010181443655
-0.06569411364228897
-0.06650222005054542
-0.06734170956898167
-0.06737305901564763
-0.06647064637586218
-0.0918064893314558
-0.09704038277221944
-0.09725615835999626
-0.09164203630167178
-0.08735126289563355
-0.08357660180379446
-0.08366563844619732
-0.08723260076815853
-0.06023681009342506
-0.06009788714901993
-0.06012726198893475
-0.06020732890590294
-0.0603618917881504
-0.0604746935398687
-0.06050371946124861
-0.06033248706150514
-0.06385629740199941
-0.06438012982710477
-0.06440935521322691
-0.06382669816841474
-0.06335902665571379
-0.06288311919720281
-0.06291199441752246
-0.06332974535564263
-0.1128897152099313
-0.1038166736136451
-0.1041093303964211
-0.1125459201312955
-0.124613211341158
-0.1409634142960175
-0.1410978584878174
-0.1242756152285834
-0.1914381808379892
-0.146745701802201
-0.1155895380925657
-0.1740668652442722
-0.1684826288078759
-0.07291986563423934
-0.5635234972519411
-0.6344782854104487
-0.5589562049467707
-0.5866623900215994
-0.5983603546623379
-0.5924791706739041
-0.7084297710123565
-0.5347092629242913
-0.3544690686270708
-0.656059074783677
-0.485059071515011
-0.5487373153430836
-0.6653451107984921
-0.5241778592141092
0.05624611741410217
0.1448866969695619
0.006826789708625583
0.0656008212651091
0.08276828482889573
0.1650361906636891
0.02902297023130875
0.03509629005320009
0.1193597926523009
0.09323269377817939
0.0144493149036819
0.08872004569946911
0.1053548753708895
0.1411465342388222
0.1169384366283892
-0.06235795415062922
-0.06324252424636748
-0.06327456452991229
-0.06232330387857384
-0.0632529624416925
-0.06450997324540242
-0.06364528917011252
-0.06412841515292837
-0.07600225130679347
-0.07190345728504985
-0.07486690319102556
-0.07290179595846047
-0.06479377153452524
-0.06500682919180437
-0.06415147244508797
-0.06564254992018181
-0.08037796561186812
-0.0868402520600285
-0.0849844982533581
-0.0789948901245708
-0.07738953325607599
-0.07911019552174578
-0.07554681790316053
-0.07410266923146842
-0.067793504766919
-0.06601203030514152
-0.06663873657266478
-0.06717905127547735
-0.06561842524583962
-0.06432719707408274
-0.06435628699454905
-0.06559273974188348
-0.06636009062619355
-0.06552742381708397
-0.06515962673635384
-0.06671041380840624
-0.07069656776713462
-0.07070994075844339
-0.07079621157016079
-0.07074198862344662
-0.06093152151418287
-0.0609708705110798
-0.06159319134159239
-0.06155619489207279
-0.06243259594032735
-0.06345546530674111
-0.06255057677441249
-0.06334439042522941
-0.06118072969647623
-0.06105285951067536
-0.06167180960068442
-0.06179529178137982
-0.06232802023269524
-0.06192247631223873
-0.06252006603263878
-0.06292007861930486
-0.0629490958543054
-0.0636163584108322
-0.06272010223722421
-0.06383528165699731
-0.06136218991787494
-0.06160471504801235
-0.06220822610991242
-0.061971548077911
-0.07310832491811321
-0.07035668908020346
-0.07105845353749485
-0.07391042283742309
-0.06967684135111754
-0.06885595179668944
-0.06797892476942301
-0.07059680115879702
-0.06662054565191705
-0.06825095308920893
-0.068896296698018
-0.06723445457157337
-0.06561406696248866
-0.06750616301829557
-0.06665089182498794
-0.06646186942325912
-0.06284444550817524
-0.06349212209192341
-0.06407828933084969
-0.06343241898340601
-0.06532950879944215
-0.06430884745420755
-0.06489731309612426
-0.06592598206493773
-0.07684886948628
-0.08210664052669463
-0.08345818014350433
-0.07783817372010182
-0.1158284238459533
-0.1103511990646044
-0.09718666048326757
-0.09432529606187763
-0.1026135235669474
-0.08997189681633588
-0.1064031077078736
-0.09206845190456145
-0.08407826902452352
-0.07950604721636539
-0.08129558111199915
-0.07732225004263917
-0.07297592115648506
-0.06988897694110834
-0.07168913303360601
-0.0710917709775824
-0.07418796611045982
-0.07637004013625452
-0.07451822649916723
-0.07251051082866716
-0.07191628041461416
-0.07250298439840987
-0.0745330847627525
-0.07334451152436414
-0.0686075629043386
-0.06850987617713078
-0.06745615810315758
-0.06967311558803144
-0.06913411607967077
-0.07009682399124353
-0.07068618547181363
-0.0685326810437982
-0.07262377457912696
-0.06994720580920151
-0.07103283427950464
-0.07150397550226655
-0.07150007480422305
-0.07121372421332781
-0.07088371614901647
-0.07101507238507944
-0.0656758091710109
-0.06452316304716876
-0.06442041300137927
-0.0657685579679302
-0.06708123633813899
-0.06875047967959347
-0.06876818060785499
-0.06705934282623857
-0.06713096597302434
-0.06887754412842885
-0.06880930878291287
-0.06721225293084455
-0.06609723213725224
-0.06467350172095197
-0.06487997109507083
-0.06590608144143786
-0.06775185608804982
-0.06966553941075404
-0.06808208264890948
-0.06935778826754571
-0.06750841834616611
-0.06898334458873137
-0.06913643637015376
-0.06733498924684626
0.09297120004802971
0.1737593260807937
0.1142117828802341
0.1275223429130075
0.1506566492171092
-0.2072945318004131
-0.2560770013936023
-0.2207336764115509
-0.2642521320197088
-0.2180170480428404
-0.3332011298291154
-0.3114011854981667
-0.2877747439067
-0.3982431436714266
-0.265382825864747
-0.1250803144453443
-0.1321590335746304
-0.1049469964364121
-0.1610652222764485
-0.1404738548331492
-0.1245492565653249
-0.1732889218714802
-0.09246685644939094
-0.08578591663302602
-0.1185849071208211
-0.1048608437248792
-0.09354801404593162
-0.1042448643338165
-0.08662183996494206
-0.08826475287124715
-0.09457360928947707
-0.08223269556695771
-0.08159439881425018
-0.07880452033891568
-0.08386566968781127
-0.07929077634963265
-0.07737406870204235
-0.3967857938356974
-0.08851582386780533
-0.041494669421978
-0.0006793965033119094
0.01172443794980782
0.04640165221200576
0.03924919300304006
0.06103785491021845
0.0485378805862698
-0.07463847656669485
-0.07685814537891317
-0.07553788122924456
-0.3358102665889175
-0.4464079465584382
-0.3222975663616688
-0.6190737973824535
-0.5793865574461149
-0.5534279557330979
-0.6813275020538417
-0.5487419567005973
-0.07339766611200044
-0.07451281863328614
-0.07348116085417075
-0.07434487491394673
-0.07334444794055343
-0.07417498826770628
-0.07422367946241899
-0.07332173538802811
-0.08104229603306976
-0.07605632803895898
-0.07755110421323855
-0.07893595662798665
-0.07517165706766184
-0.07411413663827277
-0.0764498654749959
-0.07453824338347401
-0.07573612420825301
-0.07381229029697352
-0.07480115682517267
-0.07361742369882879
-0.07516056187944492
-0.07294281842064429
-0.07293367082211832
-0.07296566356765635
-0.07300510827529946
-0.07403619650605478
-0.07335729412649941
-0.07362580332943058
-0.07318115409838614
-0.07307293483955436
0.05587715932067613
0.0708415900800399
-0.05143724328365405
-0.04533356436028138
-0.0675624432734903
-0.04699707647068473
-0.04479085800880215
-0.05189836203121063
-0.06537897617803423
-0.0768694793873481
-0.07877229378097256
-0.07557803133209247
-0.07848107405602099
-0.07920959761475646
-0.07637663532424667
-0.07606810091799593
-0.0832589473382932
-0.08188364473242575
-0.08529598181440687
-0.08080037330967683
-0.07921038225852262
-0.08003832860113762
-0.08026270684002816