/*--------------------------------*- C++ -*----------------------------------*\
  =========                 |
  \\      /  F ield         | OpenFOAM: The Open Source CFD Toolbox
   \\    /   O peration     | Website:  https://openfoam.org
    \\  /    A nd           | Version:  7
     \\/     M anipulation  |
\*---------------------------------------------------------------------------*/
FoamFile
{
    version     2.0;
    format      ascii;
    class       volScalarField;
    location    "0";
    object      Phi;
}
// * * * * * * * * * * * * * * * * * * * * * * * * * * * * * * * * * * * * * //

dimensions      [0 2 -1 0 0 0 0];

internalField   nonuniform List<scalar> 
12689
(
28.9186478796952
28.9570241981041
28.95740551511205
28.30955254794483
28.67040949507195
28.21755764663762
28.67082092896549
28.67937696390966
28.86122388072093
28.95701661243667
28.67936418341028
28.6713444434857
28.86099632056904
28.31629949862874
28.95750872422083
28.31982295388345
28.35355009405686
28.95964869938581
28.35085649737031
28.95984337819559
28.22546898356498
28.23007319092176
28.26772569099239
28.26467923144656
28.57537322353952
28.58682091310319
28.30990836494266
28.38434637033311
28.58684118860354
28.3834261346015
28.57604224453416
27.90243651502719
27.94545687642357
28.2181463266292
28.1909815573075
27.94719621301593
28.19002440507215
27.99714159778812
27.9035573832743
28.21864019443057
27.94845755230995
28.18945149181043
28.57485353608957
28.31023068749377
28.58689426132224
28.38198943511756
28.95570186135301
28.6693308652369
28.28150014546825
28.57327507785078
28.1825866743462
28.83534818866853
28.97934162324781
28.83548046151067
28.97932139744164
28.3976969064705
28.24804104935149
28.24712838329445
28.39828236219112
28.03774228998498
28.19702380494598
28.1960148833756
28.0396886477047
28.78726786090686
28.64274308590688
28.64243765914808
28.78743325725763
28.44711180943112
28.59425562300855
28.59391112358604
28.44764645560524
27.98299246322861
27.985297099803
27.98148819153095
28.91931040054308
28.91932236701123
28.28374004229995
28.2334150317326
28.25883331655965
28.30960323279168
28.12914030069585
28.20772457305133
28.20754847768436
28.12953232902608
28.67821645662892
28.63010232593109
28.65448140466442
28.70274654005573
28.53255263775626
28.60581194151637
28.60592172617918
28.53266515204574
27.87490798687686
27.87605889928313
28.89530436861585
28.823248798671
28.84748357983997
28.89532080129987
28.33454662492522
28.40956689123837
28.38454751900776
28.33474757361029
28.10258889028328
28.02167584965636
28.04863583521593
28.10301955947494
28.72683875832903
28.79919263778374
28.79915264538726
28.72689681856848
28.50805721326089
28.43432930242695
28.43417912136194
28.50817692134664
27.90572867981487
27.9938001812437
27.99311109475475
27.90673013357715
27.84162404684016
27.84891008268335
28.85971755176621
28.97937246997277
28.86044139672542
28.95567563163378
28.86037467104718
28.83571546122914
28.95545890178023
28.76378596778803
28.669190053474
28.76501315003748
28.64329732338398
28.7649120367456
28.66753422296115
28.7877400323185
28.37509148346348
28.24998072910274
28.28114458863598
28.3795024217564
28.37920971118331
28.27559677341398
28.39948966619843
28.4733951110668
28.57308898745469
28.47671267267767
28.5949100170845
28.47647622857806
28.57079974782133
28.44868210258188
27.96427481860556
27.98113561509886
28.07147122698622
28.19933996427485
28.18216470340525
28.08275667557428
28.17453504168755
28.08228275049666
28.04394858664456
27.9662040973252
27.9823516218604
27.98189939585604
27.94479225038394
28.93132937271492
28.93142992032784
28.97933637254249
28.93141180539442
28.91934105708923
28.97930873945097
28.88333460750489
28.83545829108974
28.88347561268083
28.82328998127507
28.88345616719992
28.8353001934595
28.89534337687413
28.29729141612622
28.23376336363606
28.24789237886722
28.29854084168376
28.24656466988268
28.29841535038357
28.30987126607796
28.34753214337577
28.39818553773902
28.34859725085161
28.40976083632759
28.3484844014003
28.39736926069787
28.3349946927751
28.14323862477714
28.20810689080084
28.19685561690027
28.14537888227793
28.19525907727219
28.14517129978516
28.13004855820723
28.09034006851702
28.03936689438616
28.09299159949898
28.02251229838681
28.09274659955501
28.03631058292667
28.10359734388668
28.69073572983761
28.63019811232408
28.64269320464662
28.69108687633795
28.69104571486332
28.64232334187711
28.70281875476773
28.73902106909319
28.78740633489431
28.79923859194086
28.73930934324788
28.78720280811463
28.7392746051433
28.72696324634243
28.54501740153717
28.60591508433487
28.59419876469876
28.54559689430092
28.5937604256319
28.54552997149912
28.53279732674337
28.49606417797964
28.44755926226488
28.43450934136857
28.49673921666116
28.44686169811715
28.49666431159702
28.50831893767283
27.85643887471608
27.85241712495528
27.86319270665057
27.87244673190799
27.87191378458996
27.85078160506256
27.92334332270615
27.98490394186106
27.99476958844203
27.92958174000441
27.9808219508611
27.92907000197916
27.90836278309237
27.8518829601065
27.8672741681358
27.86510055948672
27.85550387005564
28.96731036838609
28.96730952244693
28.91932011584225
28.94331754541658
28.94331576052981
28.23337352392934
28.25894897309099
28.25891033404774
28.30956955422438
28.28434085078753
28.28430485923165
28.20768007416961
28.18186054140348
28.18181235519526
28.12947546856867
28.15580414689191
28.15575216656156
28.63008861246209
28.65435238884355
28.65433947539245
28.70273565320945
28.67856638128708
28.67855477215159
28.60579689356934
28.58147847485298
28.58146253126402
28.53264673732662
28.55709728606848
28.55707988612394
27.87584575156662
27.84410418941362
27.84377500877276
28.82324286375162
28.84728691207652
28.8472816135582
28.89531739229609
28.87131047059641
28.87130643333995
28.40954097306489
28.38472095932469
28.38469344891148
28.33471611948199
28.35978369606921
28.35975413776364
28.02159087266228
28.04913445708241
28.04905963481027
28.10295808244456
28.07623242408607
28.07616409579381
28.7991854992982
28.77511725626244
28.77510948578499
28.72688715757096
28.75101914967753
28.75101015445556
28.43430517152247
28.45901430452057
28.45899152322574
28.50815699155085
28.48362857438764
28.48360747979351
27.99370606609867
27.96542491568368
27.96531384400476
27.90656512662089
27.93645235720318
27.93632411728966
28.88330817474566
28.83518708648539
28.83541435125395
28.88337800824468
28.88342735424606
28.83525639967392
28.8832603077136
28.9312872862886
28.9792865992187
28.93126120768927
28.97929528614228
28.88325949336803
28.8351179331317
28.83518795814036
28.8832119593353
28.93131663681583
28.93135775027956
28.97933172714622
28.97929634441303
28.93138536804375
28.93128920373671
28.97930531559931
28.34728759231319
28.3968290054301
28.34790440721381
28.39800964939005
28.34691126677689
28.34826316607579
28.3971579020573
28.29648697489379
28.24512038894024
28.2456195232085
28.29605455814201
28.34684277108564
28.39644520759114
28.34646523074487
28.39677542995506
28.29701458094991
28.29778369598199
28.24574150275913
28.24760084884965
28.24623983665337
28.29658407856621
28.29818970738418
28.0897800780936
28.09153918103996
28.03446032523745
28.03872647381917
28.0889229692996
28.09231769581129
28.03556753632443
28.14188338961964
28.19355398593647
28.19413597712537
28.14118899747373
28.14278036995872
28.14411031667625
28.19430237890571
28.19655759034378
28.19488379725186
28.14208354547911
28.14476324372757
28.08866256970894
28.03302433865147
28.08780383940559
28.03415346685686
28.7389466147106
28.7870527218252
28.73909578740931
28.78735736712772
28.78714444757579
28.73883214133913
28.73920519324669
28.690502884268
28.64188176927971
28.69036442901027
28.64204553573571
28.73883015464745
28.78695967643737
28.787051825529
28.73871533825841
28.69064692821658
28.69083649938376
28.64205338626672
28.64259472659344
28.69050861294875
28.69097042120547
28.64221698272936
28.495902021194
28.44638552973233
28.49628588290587
28.44738821839103
28.44667422074448
28.49564972569537
28.49652745836148
28.54463605588961
28.59324265672358
28.59343349638148
28.54441553563585
28.49562150225541
28.44605972537246
28.44634911965966
28.49536855417632
28.5448743530474
28.5451870439203
28.59344735655779
28.59409467606116
28.59363793980059
28.54465414560288
28.54539844596431
27.92195404067079
27.92647011047173
27.97834919567525
27.98420918866213
27.97983090118078
27.91991709179559
27.92800181378286
27.9190990112696
27.97630197148569
27.97788650104173
27.91680715838781
27.91444884104261
27.97958843992141
27.92467043640529
27.97646266153004
27.9224947509824
27.97413854881559
27.91740238168314
27.9102112808657
27.97425294024672
27.97168052624028
27.91389411091706
28.66845645647496
28.86006319420197
28.57212251972656
28.37772860048999
28.17876328944965
28.18017609413154
28.57133993011311
28.37512658586157
28.56911571741326
28.0159795484022
28.18055852829252
27.96103843699936
27.96280794808369
27.96354627788751
27.97479470730373
28.2337458584582
28.38886843509949
28.66785933036317
28.85909355541438
28.76276452557635
28.85981406025284
28.01871670387486
28.19025054139654
28.18353460736677
28.02813265737674
27.8301372842668
27.8402034529064
27.83746055877361
27.82787137071769
28.00714223819679
28.05939516251086
27.94682264790845
27.85280016810055
27.8266117609594
27.80276391056613
27.8577813060443
27.93218079974098
27.85103343481854
27.94280090095773
27.95727206595754
27.97962121593433
27.97964818626648
27.95916772931533
28.08827766024971
28.17585697705538
28.13904378235952
28.07745795799607
27.98831450909675
27.98093815724223
27.98027852341424
27.96182142748268
28.07152084189789
28.00375992163879
28.06345323457636
27.90801627328284
27.94434194528122
27.88757864838177
27.80834724252966
27.89103744720535
27.90770751844759
27.96557162264734
27.94806973015479
27.90910668236342
27.88778770999009
27.95285085458366
27.83576740909539
27.85848906318358
27.85655347192818
27.83956666059874
27.88317679133471
27.95926983893149
27.9525582294363
27.89180527718794
27.83361072019434
27.85625747935315
27.85583948988758
27.8337245493203
27.84860642426968
27.86070481891732
27.84443771177729
27.86312353028825
27.7976520857575
27.83352153396678
27.79931758743045
27.83567817282406
27.80543531749684
27.8014004884254
27.89783241704573
27.93993020545025
27.94192703422675
27.91413957075977
27.93067928396167
27.91143591549313
27.90495762578289
27.86736560388898
27.85460658673307
27.88184403795639
27.83349973537506
27.8824980318671
27.83649045603386
27.86559077059417
27.79752366274226
27.82482677532856
27.79767658591297
27.87745977467847
27.85354421923531
27.89202185354346
27.88703135827007
27.83571511941987
27.87481049976962
27.85187364944252
27.8814451593278
27.83082538697395
27.86183369585389
27.88437328969602
27.83153735693858
28.83347002459851
28.97906059500005
28.8352569289187
28.97924907841946
28.83482489547898
28.97930811453721
28.78714786460688
28.64123120717463
28.69065679217733
28.78658823733579
28.39727703096449
28.24351411128579
28.39529338818331
28.24650420196558
28.44674256130817
28.59251001958976
28.44499459766642
28.59366453990892
28.13052301655901
28.18701556087446
28.13330481393025
28.1847480675696
28.06126540153761
28.07895183499242
28.17724359459021
28.16867659229407
28.16551121449528
28.0778864475731
28.06442419547775
28.03650048876864
28.19183760762841
28.19529281562213
28.03304730109237
28.27479371841817
28.26480691359809
28.36630698768177
28.3734581849109
28.24214223882371
28.39437851958929
28.23628884541787
28.39054386363881
28.43936615881454
28.58883392402708
28.59197820994351
28.44419259074266
28.44082826886192
28.58978587798718
28.17512474143927
28.11914796218901
28.12646755775742
28.17662645874774
28.12098538421532
27.90605554115571
27.96448540609025
27.90050862055539
27.96856543861907
27.91111095786159
27.97747261099486
27.91737153485117
27.96781396264067
27.90680289018262
27.92021797695909
27.97134504760176
28.22955964020178
28.28277856221376
28.23077544679035
28.28621731318938
28.28379820245918
28.33777426283885
28.38728222487969
28.33588468386187
28.38660153314917
28.33506313728098
28.63808172238399
28.78482311122194
28.97922086819856
28.83462782366469
28.83381636412155
28.9791101114341
28.64077593862289
28.78633015275127
28.63889261671916
28.78527772178364
28.07484218678989
28.02200132833966
28.00913195262529
28.06837473761006
28.01410253400197
28.07266295618629
28.07808756788824
28.17888488751636
28.12348271040848
28.12727520088723
28.18205580528968
28.13186906650122
28.18796392676036
28.18831361116196
28.13730778446711
28.13502736159318
28.1344841131108
28.1858003454722
28.02032707483955
28.01555710812041
28.07441939009088
28.0779806908814
28.12958628069146
28.18022827232525
28.12522048546009
28.12882385136136
28.18617154625295
28.13256602288829
28.18326271436948
28.0250459968002
28.02274521256755
28.01865645608376
28.07637151757666
28.08350889585935
28.0808550356529
28.07960382041691
28.00336680897938
28.06583516175201
28.00986401499293
28.07031902581105
28.86081763699552
28.95701520624884
28.67938418038327
28.76439572417035
28.66889686756891
28.76470496794629
28.76353130819364
28.6671637891637
28.66661115827837
28.7631499113354
28.95556919817099
28.8602474680506
28.95563085801527
28.85956754883934
28.95540851179992
28.95533475863927
28.85934384150477
28.47526028085331
28.57270206660065
28.47598750935351
28.57030054625967
28.47274757737739
28.56955711750044
28.47178504886077
28.27939246757607
28.37861045106635
28.2804277319769
28.37426629250847
28.27454931743456
28.27300712048942
28.37304377247522
28.18133526389651
28.08022547888596
28.08139312952933
28.17319856677291
28.06977867952358
28.17125652004487
28.06740302374429
28.57034065904884
28.47305621421656
28.4742860105879
28.56852872371395
28.47045504124588
28.46869378977587
28.56716459928547
28.3765642796692
28.27806218127055
28.2764882333379
28.27090552614367
28.371360796504
28.2681797803105
28.36914655573466
28.47157638264258
28.4664134842148
28.56539157678631
28.76397604610178
28.76343566753706
28.66709248379557
28.6658464604348
28.76262180723575
28.66483246129896
28.76192200021699
28.95524742106354
28.85809217217984
28.95492234901153
28.6661440531984
28.66351552613088
28.76101476936448
28.85949306886605
28.95538003825346
28.95548649939538
28.95523264646458
28.859034031387
28.8586236260578
28.95509740793453
28.83322332167345
28.88205380377339
28.88187518615591
28.93056613286521
28.97902332768014
28.93046478220855
28.88331296362622
28.83509277299324
28.88319426076254
28.88310941541091
28.83513827305252
28.83497204856755
28.88323079854802
28.93113796907744
28.97922147929373
28.93113675362442
28.9792723191138
28.93120982917561
28.93106335852045
28.97924611718856
28.88300523577848
28.83499729385813
28.8346473043102
28.88301005065231
28.83482452740026
28.88313055873471
28.88288018802401
28.93131950714169
28.93125042591788
28.97928340442783
28.93119992681654
28.97929244869182
28.93126903833162
28.97926672430672
28.7389472852946
28.78692906150621
28.73867817346131
28.7384820371465
28.78699538785518
28.73875547993708
28.78677163845938
28.68979737313308
28.64080117390458
28.64162840967216
28.68981780177911
28.69015188514647
28.6412120791854
28.68945047816511
28.64222618525349
28.6903227380945
28.64183368115472
28.69008629766434
28.64195337934461
28.6904278454372
28.64155381039787
28.73824266895591
28.78681091919942
28.73824833573993
28.78634827632499
28.73852712945505
28.78657916937714
28.73795517154511
28.34742727135048
28.34640633719965
28.3963869729121
28.34575988169594
28.39673603106577
28.34680626470447
28.39582208335393
28.24187390174946
28.29435373626605
28.29465453171315
28.24472059707825
28.29569391789099
28.24316133238968
28.293246459029
28.34496703701248
28.39608810934194
28.34515628415164
28.39429160628963
28.34606924981935
28.39512949486596
28.34400518583199
28.29723995579643
28.29600571447245
28.24507372079112
28.29526453238323
28.24568698519132
28.29653512205399
28.24421616029829
28.49596127480786
28.44599801768509
28.49531065945269
28.4948782641207
28.44626418425092
28.49554494455534
28.44550304354227
28.54352070401144
28.59198696984054
28.54356710688975
28.59297040139961
28.59246648247158
28.54410151432033
28.54296552345904
28.49434896744135
28.44569515234664
28.49443547793647
28.44416508466353
28.49504513719565
28.44489715870014
28.49371082360443
28.54490361500661
28.59319126412611
28.54435850386107
28.54398150861753
28.59334942382216
28.59286518691173
28.54453750806556
28.03489385244999
28.09052391052011
28.03301846866238
28.08778669185104
28.0311931527949
28.0863303045221
28.08919943285402
28.1897703091465
28.1391720454852
28.13666318746056
28.13848332433055
28.19323224753689
28.1912847581563
28.14082629317517
28.14325892742118
28.19352289063092
28.14115461346695
28.13995954079362
28.194350506244
28.19252073848664
28.14214042168791
28.02895073642319
28.03071209336882
28.02614384748071
28.08569601129723
28.08229509266242
28.08452995015622
28.0876491583311
28.24034380210652
28.2404617997814
28.23851521856215
28.29036976459045
28.29346254236197
28.29193309118883
28.29201696986085
28.34151648977731
28.34411350639652
28.39330151384777
28.39327845697969
28.342867283681
28.34284561298471
28.39213047903039
28.23380604693383
28.23859173122388
28.28841824368531
28.28636170833119
28.23636987680406
28.28853861989026
28.29039193453128
28.33969767894451
28.38915895729723
28.3380724687729
28.33993938808101
28.39203547784745
28.34142475060695
28.3907659989606
28.43809137290291
28.48953747680652
28.48845144819443
28.53930288700924
28.58807809450837
28.53841831227997
28.54154455299067
28.59142300311163
28.54295467812279
28.59134669809495
28.54231241970886
28.54221963756952
28.59076149760708
28.49207365840071
28.49373218728888
28.44330182783769
28.44322464158885
28.49295881499121
28.49289246131905
28.44228275843364
28.43970841905821
28.49104654286118
28.44213722006571
28.49081093266167
28.49194151777716
28.44109872579292
28.48984525130205
28.54065562104727
28.59063075586749
28.54040591225862
28.58910579094976
28.5413932896658
28.53961798127307
28.58999622323347
28.63746695832453
28.68716298988624
28.68664431564211
28.73604882982658
28.78448928416883
28.7356369829584
28.93087369909796
28.9791924401857
28.93105400433793
28.97918931206495
28.93097595717466
28.93095420166597
28.97915871815928
28.88256197072064
28.83443955972949
28.8828696877938
28.83439238934738
28.88273332701793
28.83419664901468
28.88270536255961
28.88236446179246
28.83412883236723
28.83359357826036
28.88230026694085
28.88213648622077
28.83391709438398
28.88251769433279
28.93075618749308
28.97915161277841
28.93071119253592
28.9790748975086
28.93062016255307
28.93084363897927
28.97911970193775
28.68856626440331
28.64031862936934
28.68943138861006
28.64023155308964
28.68904301663822
28.63975290102099
28.68897453996073
28.73722331905761
28.73792898282645
28.78607723329459
28.78602623608176
28.7376179500959
28.73754781304637
28.78576062515272
28.68801588649726
28.63961976756544
28.63834054855938
28.68784805826872
28.63909972819311
28.6884561398849
28.687377874981
28.73676855506547
28.78568079609765
28.73661290212639
28.78497348230198
28.73711995605496
28.73624148553012
28.7853955822229
28.96730811398253
28.9673090851379
28.9433137728486
28.91931825737356
28.91931578164162
28.94331574028347
28.25876928044601
28.23325824573838
28.23321938235745
28.258805655706
28.28417564308563
28.30948257023434
28.3094507961491
28.28420945529154
28.18162613937196
28.20755245569799
28.20751061751448
28.18167110546738
28.15554599522767
28.12929988160129
28.12924719355847
28.15559465716068
28.65430100400841
28.63005945910232
28.63004645053931
28.65431323584641
28.67851940228516
28.70271400924571
28.70270368385089
28.67853043643416
28.58141277894869
28.60576547691372
28.60575121915963
28.58142789384752
28.55702618779464
28.53260588967373
28.53258846048126
28.55704265653146
27.84261929741061
27.87519454501875
27.87499053583803
27.84297539220425
28.84726769662878
28.82323123241975
28.82322550518623
28.8472728250894
28.87129556590074
28.89531375847818
28.89531026775474
28.87129962585188
28.38460043490204
28.40947958164366
28.40945508221239
28.38462638000005
28.35965345647163
28.33463648080948
28.33460688576582
28.35968135317567
28.04873619895089
28.02130126299495
28.02122484704338
28.04880495022686
28.07587853667646
28.10275981052268
28.10270257733978
28.07594119730476
28.77508623344752
28.79917221880406
28.79916541661179
28.77509365941755
28.75098424863882
28.72686723591288
28.72685804421555
28.75099278049672
28.45891809026514
28.43424846957215
28.43422568929236
28.45893962762086
28.48353938084127
28.50811297593437
28.50809411159253
28.48355933303736
27.964828384306
27.9933690655049
27.99328415831873
27.96492595900226
27.93575069990198
27.9060303087252
27.90588448004939
27.9358650994847
27.72052366625455
27.80538240880039
27.7579099561646
27.74321098866345
27.78546782362693
27.77183116717474
27.77807754555278
27.82152489190808
27.77752455379116
27.82708336220644
27.78328188994579
27.83309872059363
27.79423871657648
27.82601001916859
27.777681295262
27.80997296654627
27.77823436813375
27.80656593466607
27.84556733314634
27.88489231834862
27.67273007328448
27.63652614540408
27.75867859839279
27.72501788497281
27.69869867612441
27.6070614524762
27.71682177854224
27.69451278287687
27.6590651239952
27.68274012750023
27.73542486356533
27.70028011632774
27.67225047216613
27.63021495903156
27.65476118820151
28.93110800943018
28.9792107312215
28.93103226756855
28.97923581948824
28.68964307045709
28.64060994136012
28.64102818849064
28.68929001877985
28.24115832147231
28.29377426460809
28.24248266774007
28.29263613410207
28.5432636509919
28.59175776692088
28.59224653809783
28.54269746023017
28.18890361492705
28.1356096452651
28.13750056882694
28.19046692136721
28.23956880518703
28.23766877552248
28.2896578582003
28.29127588705161
28.54124313701896
28.5911806544999
28.54202818967729
28.59050480819465
28.93083921703808
28.97918118821781
28.93094313798687
28.97914677758421
28.68838769786787
28.64011662850469
28.68887389255665
28.63953959289283
28.97900848972725
28.93042169620041
28.83311653520543
28.88180012455073
28.97927367652808
28.93122224870554
28.93117111297579
28.97925673973009
28.88295309402511
28.83457007037079
28.83475010970592
28.88282592590285
28.83502262352513
28.88314532928523
28.88305914968258
28.83490029541666
28.64166024010223
28.69017711601888
28.68993736638389
28.64137655088452
28.73811773088679
28.78624462964213
28.78647943287842
28.73782546585417
28.78683496710029
28.73856011372481
28.73836146157965
28.78667532932385
28.24444332202188
28.2954678127744
28.29471123274844
28.24356864253455
28.34447993926755
28.3938527143826
28.39471133333018
28.34349336162217
28.39599747977107
28.34595338355605
28.34529439035112
28.39542178403093
28.49404488279687
28.44379507211152
28.44454365671961
28.49339291589007
28.59298431243989
28.54411703653088
28.54373431122471
28.59265331215645
28.44566769559493
28.49502588404595
28.49458618187554
28.44516416643656
28.19276420974654
28.14024882322932
28.13902874176783
28.19174152637046
28.02413379288011
28.02720005784923
28.08089731868036
28.08325994548751
28.0315289077057
28.08664751079723
28.0296095990944
28.08514757966617
28.23272867864679
28.28547492126669
28.23541438752448
28.28774528753894
28.34092548640945
28.39283236631644
28.34231806459282
28.39162742918533
28.38855430401479
28.33735114317831
28.33928673982232
28.39021464593791
28.58775208041891
28.53803168345125
28.43753462651298
28.48798410808047
28.49171411514088
28.44290738677666
28.4926210820355
28.4418618563998
28.54032971654404
28.58880829493092
28.53926677585023
28.58971973831477
28.43920912914308
28.4906565754311
28.44063977293168
28.48942270147033
28.6371978569209
28.68642024669079
28.78434581909328
28.73545683846111
28.88250174276878
28.83435818095697
28.88267623839066
28.83411104689386
28.93071917669926
28.97906117747671
28.93058074315397
28.97910700130628
28.88230006710365
28.83349569883434
28.88206750412923
28.83382537112087
28.73707933367454
28.78596817016425
28.73748123995659
28.78564563528449
28.68782436964419
28.63809463317505
28.63887030735365
28.68717254660508
28.73661414703149
28.78484175757194
28.73607645629724
28.7852725381581
27.67594844696598
27.5823547879476
27.64879185235907
27.63113862216511
27.60598211288382
28.03653672539016
27.86198936492543
28.06835602175804
28.01342185821484
28.0680592051761
27.98702072367468
27.88849547688784
27.96013888700791
27.9217986021312
27.9090570555549
27.81566096661263
28.11264343172843
28.17066457617797
28.11582130694653
28.17721157336724
28.17225773459686
28.12293077328728
28.22575257257864
28.27957073459883
28.23066462019292
28.22710558846491
28.28070314341049
28.28350046559521
28.3332566224809
28.38682963569097
28.33539958630772
28.38504192766154
28.33232552905263
28.38427624109788
28.43758338684608
28.4361696124884
28.48680445990052
27.87239696550084
27.8220526539454
27.78514990942997
27.81431890012726
27.78276108601996
27.75140005798263
27.77315820168748
27.72589018471724
27.74768369305284
28.5365843970783
28.43555147367379
28.48629012455659
28.00242101300317
27.97103639603245
28.00501389631328
27.96161693907362
27.89157426643828
27.93830929109215
27.92018028922011
27.90982423098374
28.88157335280898
28.83305765884799
28.83279431818886
28.88176786922412
28.93028476455577
28.97900634885157
28.93039145300716
28.97896408916693
28.4880055703358
28.53700630359332
28.58770121930828
28.53797108704715
28.5868747421769
28.68579115039391
28.63711079086625
28.63644679948533
28.68635534320022
28.73493471305148
28.7842911279196
28.78392854055292
28.73537689677969
28.9302382567995
28.97894778393926
28.88149171302096
28.83267874373482
28.5865196896821
28.68554773460951
28.63615489566846
28.73473957713516
28.7837726858118
27.72604304708205
27.70381288260197
28.4046830721733
28.58040225724487
28.95988465066112
28.7496487629776
28.58076842833954
28.40417618367024
28.91696357284821
28.86332728173765
28.864483631102
28.95664801798927
28.95702241268063
28.86447874499306
28.86334403737909
28.95664225190636
28.68215599063072
28.95741604408769
28.68226713053267
28.69017515876482
28.95848920896415
28.68989913472208
28.95852591353787
28.39597800353485
28.40184103774895
28.30959982738574
28.30246610830605
28.40186353980869
28.3024533857442
28.39600885346575
28.76570710598255
28.76534099346626
28.66990515905606
28.67329078622502
28.76768202300233
28.67302169860044
28.76747666287159
28.11617976912835
28.12604250159941
28.21764130786015
28.20909172024005
28.12617637861961
28.20911240190159
28.11610485784506
28.76600351808748
28.67113351833209
28.76622777223274
28.76800043461925
28.67352819888485
28.6737177042148
28.7678599393773
28.76997473412375
28.77193447139854
28.6793708929886
28.67659923629413
28.7719278506915
28.6765651733247
28.77000115323382
28.95595155237755
28.95596814047359
28.86127106011395
28.86222612602824
28.95629051446198
28.86225719695648
28.95627985599255
28.86329605708871
28.95701955101595
28.86446373316517
28.95661676141287
28.86447108992081
28.86325321480067
28.95663151711437
28.76992563747214
28.67641905813481
28.67936398716793
28.77191079402469
28.77191818510005
28.67650255901071
28.76985883586643
28.76637913505123
28.6714500343044
28.76645519031704
28.76809766931127
28.67391775408256
28.67384955609
28.76814788382874
28.95587449676432
28.86113158844277
28.95591993878138
28.86216627643156
28.95623028915226
28.86207992928564
28.95625949138109
28.59048580802298
28.31686154776475
28.59066199279367
28.60093648377721
28.33381896457777
28.33454564179562
28.60056540297543
28.86575631272946
28.68307223146264
28.77410494007803
28.69037096250839
28.95868554358598
28.69135517312503
28.95855207274789
28.40864740994655
28.5001842961451
28.49972416781925
28.60119847303218
28.33746786451682
28.33504916085062
28.60250329659153
28.60414226873643
28.3421600809714
28.35229772853562
28.61256185510338
28.61153036251315
28.33990240869662
28.60540826394995
28.69246180808764
28.95881292300628
28.6980161255907
28.9596902670413
28.69821798267825
28.69217714403117
28.95885176503553
28.60387956272028
28.33871534289099
28.35114037052992
28.61099033294193
28.61130746662206
28.33942056059729
28.60350134625844
28.69266044543086
28.95901172119496
28.69919015863315
28.9597308630771
28.69838877321778
28.69362502194989
28.95887880978244
27.95674651810078
28.22624622057567
27.95842637091572
27.98490205265747
28.24553094476346
28.24639981103547
27.98357900652599
28.13798654737853
28.05072256104075
28.04910261696628
27.98579395193073
28.24982951051246
28.24699760717158
27.9898458401681
27.99267253765835
28.25504847645034
28.09594114482507
28.26631308754779
28.09515484605728
28.25244048446189
27.99627688879234
27.99187009969254
28.25105027245774
28.17907445134363
28.09314351560847
28.0935448191511
28.25187803349281
27.99067271314445
28.4795915279434
28.57577172870935
28.48006915576204
28.48466076181142
28.57904985259659
28.57927949815021
28.48440600171857
28.48954786499489
28.494292164254
28.58681882170266
28.58312636838244
28.58308777368923
28.4942989693169
28.48958619808645
28.39593187941378
28.30971024809493
28.40203335423983
28.30248403815728
28.40192115892793
28.395893151282
28.30244905014468
28.28785990888513
28.28807714966553
28.3845406673869
28.39005438331286
28.29521242248048
28.29511190824901
28.39015828362412
28.48948239496324
28.58292980943649
28.58682188343046
28.4943770051486
28.58301849577049
28.49432227777959
28.48940595026551
28.28687228538926
28.3839675052109
28.28744541504853
28.3898630398159
28.29471995127765
28.3896078937888
28.294935755129
28.48039708548344
28.57617811512367
28.48056307369709
28.48484426403175
28.57952560959705
28.57944127644101
28.48494134961325
27.99697068145109
27.99699940709507
27.90184884787176
28.01140620645855
27.91962211328442
27.91880151155875
28.01179635499547
28.02398156928684
28.03524909087179
27.9457321906667
27.9326703118005
27.9329294005467
28.03544773341632
28.02382697285246
28.11636282310698
28.21782765443628
28.12694320130821
28.20933853832558
28.12646541810716
28.20918117861437
28.11670362821465
28.09391149316916