/*--------------------------------*- C++ -*----------------------------------*\
  =========                 |
  \\      /  F ield         | OpenFOAM: The Open Source CFD Toolbox
   \\    /   O peration     | Website:  https://openfoam.org
    \\  /    A nd           | Version:  7
     \\/     M anipulation  |
\*---------------------------------------------------------------------------*/
FoamFile
{
    version     2.0;
    format      ascii;
    class       surfaceScalarField;
    location    "0";
    object      phi;
}
// * * * * * * * * * * * * * * * * * * * * * * * * * * * * * * * * * * * * * //

dimensions      [0 3 -1 0 0 0 0];

internalField   nonuniform List<scalar> 
37110
(
-7.685474320830734e-05
0.02920913238039666
-3.832095022437254e-06
9.230039543413949e-05
-3.593947942237912e-05
0.007947410165184665
3.651114843574779e-05
2.216227309665527e-08
0.007888501527407929
-1.887568052018834e-07
-3.470442579914297e-05
0.007884721479927208
-0.0005835762584778225
-0.007911893712967135
-4.763630254029319e-06
0.0006155121217713781
-2.808738579342253e-05
0.008201795801090117
0.0002377094962130753
-0.008178829824792015
3.376383218477344e-05
-0.0002663519189025039
-0.0006813078981180713
0.007841725879486007
-7.567304980697224e-06
0.000731870803499969
0.008188865089321439
0.0002210071899569465
-0.00816542346779461
-2.143153976443194e-05
-0.0002511046575601568
0.007940879927431366
-0.0002506399803599994
-0.007943550998399981
-1.47100816592236e-07
0.0002534581521453302
9.819728119004223e-05
-0.008119042183842334
-2.965441505626294e-06
-0.0001056694072159274
0.008123377300551184
6.102450821198707e-06
-3.345173912921201e-07
-3.780723447905652e-05
9.491976042227539e-08
0.007953067235743594
3.880891336191838e-05
0.007943175980372169
-3.565935594818301e-06
-0.0002607744948318951
0.0002673076884050688
1.579106106271395e-06
-0.0079477223444553
0.008160588367699347
0.0002038656481823809
1.430214931754138e-05
-0.008137498161101852
-6.944068690769932e-06
-0.0002343139354068371
9.886769316729761e-05
1.203823313478746e-05
0.008149070071389826
-0.008140619979936925
-9.156205693912874e-06
-0.0001101998120611882
0.007794553240749659
-0.00782629513456513
-7.158069985327192e-06
-0.0005446762947225466
4.299260054324247e-05
0.007873473137566566
3.645575164199357e-06
-3.929112416072334e-05
-5.020849720749515e-06
0.007706400002245067
0.0006295820370712647
8.220260472156793e-05
-0.007753290955255239
-0.0005611013094822799
-0.0001037923793002969
0.007404475372256331
5.213459262418004e-05
0.000292049090379265
-0.007433325886111089
-0.0002576534320309397
-5.767973711654325e-05
-2.058925863429191e-05
2.240582152700408e-05
0.007528819222958251
-5.347439257449375e-07
0.007433903375786539
-7.221962930782156e-06
0.000314006908912212
-0.007464531467374012
-0.0002761568543948865
-2.99104379777892e-05
2.31007002472398e-05
0.007505199436872373
3.407958074802728e-06
-4.009478613294679e-06
0.007750247981037553
-9.760798843571755e-06
-0.000627241839618903
0.0007104964108962489
0.0001025981898323837
0.007649309150751001
-0.0006291496939340533
-0.0001268540553169964
5.864539650706772e-05
0.007386480521412849
0.0003264133904666734
-0.0003020063973698892
-6.505753878636205e-05
0.007416597646647662
-8.179505413476394e-06
0.0003534804786167108
-0.0003279952440631644
3.54358634513561e-05
0.0002950787600893651
0.008217491050687602
-2.718988384965249e-05
-0.0003319507011053613
-0.0003248480205682137
0.007936387827488588
-5.860996827081735e-07
0.0003299262201546031
0.007868133384094072
-2.669847722678917e-05
-0.0005998979196102644
1.727949037763265e-05
-0.007901850144713131
0.0006430336670820667
0.000457125076498662
0.008259278852557303
-1.171630567687778e-05
-0.0005043881791984812
2.405583310241343e-05
-0.008224355277280672
-6.28845544595493e-06
-0.0003375048767733975
0.0003479100352655075
3.269713889628345e-06
0.007935789563405167
0.0005077807545947058
-0.008248616586395811
0.008277441558211368
-3.53184033799384e-05
-0.0005459009190248324
4.461359599542046e-05
0.0002688099004184663
1.819934273659517e-05
0.008190302228804867
-8.836974753814956e-06
-0.0003078861295654399
-8.049167212280168e-05
-0.008058843755625759
4.577182219799872e-05
-0.001462179897370557
0.001740124260131396
0.007815619242787583
-0.0009603527018616087
-0.007693016502958825
-2.102623060411632e-05
0.001087996465110942
0.007586398970313375
-3.925594950133037e-05
-0.0006957810345595575
2.625351693397931e-05
0.007817920440104705
0.000758996411069679
0.000782673223292172
-0.008288033577269389
0.008296485628095788
-1.098863315264592e-05
-0.0008022547436242827
2.211810265879055e-05
-9.414488983480684e-05
-0.00095401159171646
0.001088230200892761
6.725801978972974e-05
-0.007657811040295373
0.007550479301162049
3.2967146479364e-05
0.0008716635838450119
-0.008294579423662268
-3.017228815980738e-05
0.008282654887668231
-0.0008625339061715994
0.001336881635885879
3.878913215440089e-08
-0.008259405262267438
0.008141771198592338
-1.160806109463776e-06
-0.001218125555230635
-0.0001320387492130932
-0.007981360030303853
-0.001470791555741875
0.001768274525452598
0.007735424137643989
-0.007853933554704647
-5.589743139254062e-05
0.007799529805592464
0.000774051489379683
-0.0007030062584010476
0.001082837255594381
-0.007634416599385963
-0.0001241463053388406
-0.0009464662075764083
0.007528046966840409
0.0009456258038987263
2.745721473214555e-05
0.008252695918414611
-0.0009089753867142317
-0.008283836403883907
0.000319204740845039
4.218723143949131e-05
0.008228897332584454
-0.0003530576404202757
-3.938414497285375e-05
-0.007891780653035139
0.000659562788249849
-0.0006090300222408761
-0.007941639193788866
0.0003599137629248088
0.007932149040066172
-1.116150156560664e-05
-0.0003455505631115965
0.000615442766009226
-0.008261154526665784
-5.036721049357099e-05
0.008272238170503866
-0.0006258653224427117
4.97061230902265e-05
0.008154034902045519
1.334837262042532e-06
-3.70608499522413e-05
1.161277972853471e-05
1.050078558542504e-05
1.298218397517291e-05
1.100672876115877e-05
0.008201373435923436
9.407081711320081e-06
-0.008166374805388137
-0.0002018763742726352
4.503724100998784e-05
3.524597520004663e-05
3.391401355527725e-05
4.327343226305513e-05
0.008447311717390101
2.063190747553639e-05
-0.008372147903479324
-0.0005855037391237534
0.0001245500788424134
0.0001216457548070861
0.000121291967927558
0.0001222202161580565
1.231928796814965e-05
0.008247759919395841
-0.0002650031220136015
4.700941287391755e-05
5.45695909193888e-05
5.653592941688311e-05
4.818241731487712e-05
2.198379292399163e-05
0.008518582415442684
-0.0007671619145257095
0.0001699610023751426
0.0001659112900467291
0.0001683655862225908
0.0001696695448679267
0.002070672922422834
-1.402991184689751e-05
1.05801181826666e-05
-2.534656229863847e-06
-0.002068117952706889
3.429480177305263e-06
-6.174016036555747e-06
0.002038424057436379
8.861218831504878e-08
1.591408292232657e-06
2.05824281665395e-06
0.002038274543826266
-2.080976233536487e-05
7.409007253991115e-07
-0.002033227480617969
6.889180824382426e-06
1.552365350669573e-06
5.513418748496124e-07
6.028910352843744e-06
-6.035559370716568e-06
0.002061350047341632
-2.976033249823296e-07
2.822600918736583e-06
4.934897331643056e-07
-0.002133060064036307
-5.947126002313406e-05
3.80671763156978e-05
0.002150190598973196
-1.127764253616301e-05
1.555119130551207e-05
0.002173327931839998
-8.73973861066023e-05
4.655309088813866e-06
-0.002151346176831786
1.74697674811671e-05
1.394132228432321e-05
1.301600012319185e-05
1.633323211975378e-05
0.002205890897268644
-8.637220212978863e-05
-0.002187106581624969
6.195736934530827e-05
-1.643262280038149e-05
2.206313994101957e-05
-0.002102636822208955
-5.396270608793055e-05
3.21568923456326e-06
0.002116527064370882
6.914134472240724e-06
1.04981924280418e-05
1.158110970428901e-05
7.863338085040204e-06
0.002354545533550911
-0.0002041711117957795
-0.002317592814199193
0.0001593422677931884
-2.667327797612967e-05
3.454940262844046e-05
-0.0001054757294572529
4.985853905798442e-06
0.00220029119244822
1.630675665673253e-05
1.94242343930209e-05
2.058459501644817e-05
1.72110288630266e-05
-0.0001182604988812157
0.00223971958053657
7.776940883284324e-05
-1.815808732429319e-05
2.482049408652935e-05
0.002317388437295538
-0.0001999993365134319
7.164373560371482e-06
-0.002271256513305332
3.802518397481608e-05
3.627086115128283e-05
3.56313659183908e-05
3.677562791833434e-05
-2.046585966262765e-05
1.205594049224526e-05
0.00207782453349434
-3.240240390610471e-06
4.498548467390221e-06
0.00206418809482809
-2.550757368144415e-05
1.712097891393584e-06
-0.002057438476226409
6.712984779423643e-06
2.806362402132148e-06
1.842711811405202e-06
5.683798196299156e-06
0.002093923908738885
-2.36803093220712e-05
-0.002089200167451807
1.687716706069116e-05
-5.826870978733749e-06
7.9062719532735e-06
-2.002289149382762e-05
9.390959775592249e-07
0.002044752906486658
3.481389891488618e-07
4.977130564861064e-06
5.952169116528656e-06
1.327994169352225e-06
-4.467635698097603e-05
3.151424796787817e-05
-0.002123485409435751
-1.010087928438189e-05
1.368833367658359e-05
-2.97881814621874e-05
1.935715024512143e-06
0.002072096668562336
2.603110945674497e-06
6.369255058811222e-06
7.406442328927504e-06
3.565084356553559e-06
-3.29774751376134e-05
0.002103838005426322
2.051378653637756e-05
-6.681206383846845e-06
9.230798277451614e-06
-4.595599898567096e-05
2.932927967209973e-06
-0.002091080617703715
1.024545692333948e-05
6.499225463172173e-06
5.546608359454139e-06
9.175575752099066e-06
3.76151733247546e-05
-0.0003119651398934309
0.002427823694001669
0.0002299523783346691
-2.88805722396506e-05
7.265720522863999e-06
0.002372206997112209
-0.0002607357767898344
4.970268548497235e-05
4.881822840201885e-05
5.009214335159577e-05
5.003843919788067e-05
-0.0003381374877144548
5.207728548352228e-05
0.002438756848296025
0.0002492261319256905
-0.002364307604682908
0.0004555526487767442
-8.672627691330744e-08
-0.0004546419592484912
-2.069792538994083e-07
-6.169839973797196e-07
0.0005090442950598098
-3.235450462617014e-06
4.687280837657635e-08
-0.0005068879951512854
1.032277745862683e-06
0.0005295970482648845
-5.638602155846417e-05
-1.36341059398212e-06
-0.0004708591866394662
-9.884294732147832e-07
0.0005499205409982745
-7.723701561361463e-06
7.343245741988111e-07
-0.0005466154875438195
3.6843235330086e-06
6.100783953573358e-05
-2.188920328774265e-06
0.0004760218739865254
-5.243744936416833e-06
-0.0005382143632333878
-6.003079111865101e-06
5.915240471414888e-07
0.0005407949981029439
2.83092019522447e-06
0.0005054772403219511
-1.72244857225572e-06
-0.0005007167307177042
2.297208793838851e-06
-5.335269826023864e-06
-8.634395329916215e-06
7.760646899537668e-07
0.0005536947629860064
4.084108646348296e-06
6.206738341276872e-05
-0.0005359493237103818
-2.470515836132927e-06
0.00048232006353732
-5.967607403576862e-06
0.0005675792959992038
-1.170571593486216e-05
9.870357857332393e-07
-0.0005624495171143209
5.588901263702773e-06
0.0005046434839489866
-5.510276506769065e-05
-2.298294126762231e-07
-0.0004503838993121995
1.073009844020799e-06
0.0005198776841673046
-2.063793101614185e-06
2.490249401961035e-07
-0.0005190486894034714
9.857733976865188e-07
5.663376110656109e-05
-9.435754885427149e-07
0.0004517122807502566
-2.758982426370424e-06
-0.0005167593469296821
-1.708531130345777e-06
1.90883063007898e-07
0.0005174973827156497
7.796122809110262e-07
0.0004663033852114139
-5.770200628987398e-07
-0.0004651453026115143
5.490951809133068e-07
-1.13015771815203e-06
-2.340116092790282e-06
2.648017555858295e-07
0.0005208635213884591
1.089477110277555e-06
5.694534057768821e-05
-0.0005062620911443368
-1.046873258241179e-06
0.0004532895570663725
-2.925933241344991e-06
0.0005241478843154716
-2.85051974552767e-06
3.324133127086335e-07
-0.0005229920559559006
1.362278072929519e-06
-0.0006600046112170804
1.379945922119451e-05
-7.156238495118313e-05
0.0006920619213558934
3.361756873222254e-05
-7.911953141044565e-06
-0.0006576287459950144
2.324993122813859e-06
0.0006849305588973073
2.87687990310578e-05
-5.839560505615492e-05
-1.078659585836275e-07
4.902574120064615e-07
0.0004562113940432203
-1.041136726986914e-06
0.0005141795384130452
-1.42397886937464e-06
1.116994919215927e-07
-0.0005134388626471368
5.71603611872189e-07
5.56616065461202e-05
-0.0005001494978510444
-5.796455236886467e-07
0.0004474848114756543
-2.417274646560095e-06
-2.943060856041881e-06
5.999176194955009e-08
0.0005109860604168453
9.413037301302387e-07
-9.747859391354239e-07
0.0004789335967141439
1.154743575618965e-06
-0.000476769960528298
-2.343593822995943e-06
-0.000530030264853809
-4.336540799238335e-06
4.564513932236527e-07
0.0005318709479244415
2.039406335946702e-06
-8.553653823104219e-07
0.0004749437557901232
9.722878120160346e-07
-0.0004731055392922135
-1.955138927616114e-06
-5.409849747459263e-06
5.613150519546269e-07
-0.0005359463914874485
2.580562942735811e-06
-1.842798316868055e-06
3.262033817206657e-06
0.0005107879564021675
-6.72995158602241e-06
0.0005970070039647675
-1.98799731925049e-05
1.383352621351986e-06
-0.0005880232613406467
9.512877946604732e-06
6.719774297161786e-05
-3.840077917007765e-06
0.000513125385323539
-1.018748934832352e-05
-0.0005662955610299095
-1.3328146104615e-05
1.048423941494706e-06
0.0005735342990271191
6.324719129885276e-06
-3.074637626619045e-07
0.0004597796497608834
1.38171843217254e-07
-0.0004591488606795379
-4.614971617536573e-07
-1.426371079738173e-06
1.246730845070714e-07
0.000514894751244136
5.86485157764191e-07
-2.165501530847176e-07
-0.0004578289315006548
6.659045808488676e-07
0.0004581862432979179
-8.06666224821383e-07
-1.48548354992442e-06
1.770213766586886e-07
-0.0005161486322884337
6.977475257381511e-07
-6.100351676897924e-07
1.283139951867121e-06
0.0004673799222812493
-1.749641859746507e-06
-3.907386942573944e-06
4.332437118693651e-07
-0.0005284214344726058
1.865312842613048e-06
-7.520613271379829e-07
0.0004715760956503365
8.155428012032149e-07
-0.0004700080629487794
-1.631514176213588e-06
-3.185830305181744e-06
3.511569255890691e-07
0.0005254897748941219
1.492782794994936e-06
-4.224885138110225e-05
1.029694101144669e-05
1.985998631121382e-05
-0.0006410071144189929
-6.905572747131387e-06
-2.360098039469093e-05
1.467698297422134e-06
0.000607890994465785
1.12492915890397e-05
-2.627428136845266e-06
-0.0005322829721268363
4.570855845005579e-06
0.000542218501120491
-1.187895670197908e-05
-4.373771030811924e-05
2.071744683268706e-06
-0.0006371570564226385
2.119427604556081e-05
-0.0001540992089055132
-0.0005945393901288008
-0.002526266304958299
0.0001583647180396238
0.0007778082303701103
0.0007733205297275317
0.0007983683841318977
0.0007670430417234665
-5.5402677592109e-05
-0.000507906918753256
-0.002466284866025966
0.002875495253449277
-8.946089566842689e-05
-0.00819855191448355
0.008216317253961526
1.701128544563094e-05
1.733098772821213e-05
1.865945731880292e-05
1.090557214753333e-05
-1.84952233824628e-06
-1.237592038009941e-06
-1.661147482899614e-06
-1.493396453119663e-06
0.002042229516156026
1.236417537888291e-07
-7.021601899894285e-06
3.900352701952317e-06
0.008148335576112196
-0.0001010297029030185
3.029853492276201e-05
2.217083370172762e-05
2.04642999371168e-05
2.989500754317957e-05
0.008169101789812512
3.674489094409395e-05
2.843809919171681e-06
-3.522845992963528e-05
0.008173202736078822
8.535791791103464e-06
0.002043861622857684
8.383073953644939e-07
-0.002041262105654841
-2.424758694881561e-05
8.24835598609876e-06
5.445461153409485e-06
1.225311583873438e-05
3.614491551774525e-06
-1.897395388292039e-07
-8.09783784867465e-07
-3.938489926958149e-07
-6.715571039862551e-07
-0.0001206796863485949
0.008252012306152546
1.740514042380416e-05
2.023002074595616e-05
1.896935524327281e-05
1.862234020500177e-05
-2.311810924239283e-06
-2.97137538851969e-06
-2.617124751846229e-06
-2.807771111348022e-06
-0.008194752298583121
0.0001572029068220972
0.008230214194599211
2.060792695085384e-05
6.598137517978536e-06
-0.0001504692759426236
2.511727538148016e-05
3.640789527733384e-05
3.767488335234452e-05
2.663185505103317e-05
0.002066368051036388
1.939434876155137e-06
-0.00206083381401252
-3.298124559482228e-05
1.444392638177215e-05
-0.0001500750378301761
0.008299945709941954
2.510016186128524e-05
2.471478577958117e-05
2.436133016631733e-05
2.694560620247846e-05
-4.19620092862328e-06
-3.455493971425802e-06
-4.063153936900016e-06
-3.817841550040951e-06
1.10076331115124e-06
0.002049550660893341
-2.681269286368906e-05
-0.0003680198442453705
0.008542483002319638
-0.008440105265884099
6.139786930159559e-05
5.858674457382361e-05
6.191340841865949e-05
5.802607124272686e-05
-7.632667799730157e-06
-8.988846197664269e-06
-8.209592777164067e-06
-8.922138989895297e-06
0.002163444621429472
5.072195546766021e-06
-0.002146007213068508
-0.000109906990028669
-0.008400691848059038
0.0004976353069768719
0.00847490431991459
4.550030266063383e-05
-0.0005967161740479505
1.81747062032397e-05
-0.008304696426162455
-0.0004491249612656505
8.817289594413938e-05
9.210415377622892e-05
9.430867186398435e-05
8.891305612448313e-05
-0.008333439923424234
4.002801365679507e-05
0.008674621298717796
8.212247903772248e-05
8.653009710438934e-05
8.100808638358229e-05
7.083849184681176e-05
-1.107539379321227e-05
-9.303362655765446e-06
-1.109896401323368e-05
-9.896625551883529e-06
-0.002101857006075113
3.679959061189001e-06
0.002115318869747604
-7.110452883675454e-05
-0.0002757688639234724
-0.008361176382292676
4.404616698436574e-05
4.535865071474414e-05
4.323899820457642e-05
4.641386694226673e-05
-7.153487891888651e-06
-6.086142585838301e-06
-7.059143828460875e-06
-6.595285239383085e-06
0.008276543995683217
0.0002077703860626964
2.702900111811609e-05
1.528991898478e-05
-0.0003453370188827628
7.255905173701672e-05
6.553574816998606e-05
6.454474359761343e-05
7.047104955308257e-05
2.244071750501795e-06
0.002074551021554375
-4.021522375283801e-05
3.361038276262484e-05
-0.0003509852555352819
3.265470578624121e-05
3.218407307812557e-05
3.347091492430165e-05
3.612011990927577e-05
-4.701056919587609e-06
-5.572129678678515e-06
-5.133354459451204e-06
-5.461034165593864e-06
3.303456605026035e-06
-0.002092173332041466
-5.894312964675251e-05
-0.001502526309745143
-9.304328833678053e-05
0.0003509500403378877
0.000395058876927908
0.0004064810403795754
0.0001348265826003959
-0.009044961842113943
0.009015077412220922
-3.383417438207454e-05
4.2374606977267e-05
-0.008567091519269409
-0.001384541246071902
0.008440566022953023
-0.008838777168439621
-0.0009773059893378442
0.009009727819681998
0.0001827229777007066
0.0002005175279755404
0.0001788950838185195
9.369991089998468e-05
-1.468665947296037e-05
-1.161263780574164e-05
-1.588221581114971e-05
-1.146976102358959e-05
5.435000754358133e-06
0.002186861136519649
-0.0001343272453224491
0.000687948416492071
0.008543177456291051
4.843546324278209e-05
2.113743459627869e-05
0.008552626825857088
-0.001008042410307727
0.0002343879154441445
0.0002426166590995582
0.0002440061206939117
0.0002318498700332407
0.0001275013695244422
0.0001164929150416612
0.0001266958613219259
8.3795751564842e-05
-1.087129466419894e-05
-1.321643597317393e-05
-1.132208942969187e-05
-1.354402957923326e-05
0.008569683660207649
4.602497225015307e-05
-0.0010286997309859
0.002267229626938929
6.644178250121596e-06
-0.002239999326580664
-0.0002338738151356336
-0.001411291956914844
0.0003610166046052748
0.0003015794809275684
0.0003502065429407402
0.009051868327389427
-7.92277913842039e-06
-1.388459059381965e-05
-1.000191833304344e-05
-1.685031952557202e-05
1.681836119624101e-05
0.000351153153855459
-0.001311941835114175
0.008476427832089612
0.0003540375232452253
0.0003318488372110311
0.0003342829533473444
0.008478257525849643
0.002218501289403122
4.836776122100272e-06
0.0003654957650564311
-0.002237680676737694
-1.75111863232712e-05
-0.002022528177243077
0.002031290114909427
6.755852337328689e-07
-1.995783697028927e-06
1.880637221619277e-06
5.604094352915491e-06
2.956226847987718e-06
-1.185153738854827e-07
-6.617694343980852e-08
-8.542433025993156e-08
-1.013946531199623e-07
2.926104918997384e-07
0.002032890096916232
8.070948881262893e-06
4.945916766794167e-06
4.062801985913513e-06
7.797610598636601e-06
-1.963592821519685e-05
0.002042100810429434
5.297442421136724e-06
9.008758191910486e-08
-5.523553233815622e-06
0.00204105984579934
7.1674358464988e-07
-1.689435482740716e-05
0.0005071423859164272
4.853993475873458e-08
-0.0005050972777596856
-5.329098561101192e-06
1.995854576714906e-07
-2.957929036137645e-06
7.059760835328619e-07
-5.338503790273301e-08
-2.533327624767794e-08
-1.735772560653989e-05
0.0020406797429464
1.112183125748529e-06
5.613775939947537e-06
-2.228048259761238e-06
2.920903693983068e-06
1.204790612083977e-06
-1.346711922244623e-07
-1.902373363405862e-07
-1.773240526366617e-07
-1.532749808441354e-07
-0.002043891861904706
1.363292517172811e-05
0.002048948680048151
1.58307428006074e-06
-1.953191688301098e-05
4.782451411727661e-07
2.081617137775991e-06
8.1708159523016e-06
8.744306775014798e-06
3.101591662026538e-06
-2.291396039825353e-05
0.0005128720743793184
1.235270141987193e-07
-0.0005122194902563935
-2.200090013045754e-06
8.816838846270025e-07
-2.059318050210818e-05
0.002048076387224393
1.643527446988354e-06
-2.380947049130809e-06
5.077503863023115e-06
7.26181171215311e-07
2.157912214409451e-06
-2.709259878983612e-07
-2.162302942704556e-07
-2.385102951929085e-07
-2.622302031646143e-07
6.481575874438085e-08
0.000509450450789499
-5.31594149968551e-06
0.002166178830146914
-5.029217381695167e-05
-0.002145341220538635
9.578084155700943e-06
9.966206109704017e-06
2.97209771830213e-06
6.968838360103959e-06
6.000387263151733e-06
-1.402589527888838e-06
-1.540598033801098e-06
-1.54632812848787e-06
-1.541533708760676e-06
0.0005483411608184197
8.310146288038874e-07
-0.0005453421058696205
-1.155377114458597e-05
5.981336432783307e-05
-0.002161787896416487
0.00218354657028343
9.805823609465928e-06
-8.672255272815639e-05
4.028969850566881e-06
-0.002132277867600779
-7.417129475508192e-05
1.053352212636782e-05
1.397682753990644e-05
1.509340243943888e-05
1.147026355340672e-05
0.002190948369745312
1.108253211327453e-05
4.22324723054626e-06
1.122636539768352e-05
7.283228289974318e-06
8.206021094893053e-06
-1.783673429239557e-06
-1.618127550841495e-06
-1.791365663536462e-06
-1.784402786302801e-06
-0.002142245016409867
7.645398425535611e-06
-7.345148244259031e-05
-0.0005369277025510655
6.715839965062731e-07
0.0005396556175255581
-9.402578089138966e-06
-4.231326936314683e-05
-0.00212808595482062
8.561451168380265e-06
1.956830986502895e-06
8.931691126449012e-06
4.965080285727181e-06
5.961308217131904e-06
-1.35610061892597e-06
-1.238895466843367e-06
-1.355988176445351e-06
-1.367373892708273e-06
0.002126643031575598
3.619463520612835e-05
-0.002112427940555316
6.12400846064754e-06
-5.331804546537605e-05
3.713163002916624e-06
1.313547489936964e-05
9.456042905769079e-06
8.512117956064013e-06
1.203683706360782e-05
-6.260443908538994e-05
-0.0005289005989622127
5.162643576494144e-07
0.0005309004192277051
-6.852625428979021e-06
7.720910220323649e-06
-6.192300145828305e-05
-0.002113285810114122
7.436505379600464e-06
8.116239750956218e-06
1.162686429912748e-06
5.16100129429662e-06
4.144202430393526e-06
-1.078647199508564e-06
-1.180565609769808e-06
-1.191146102142858e-06
-1.17578590664414e-06
6.330241932880436e-07
-0.0005349038589258634
-8.066717576956495e-06
-0.002221627668501815
-8.933199009903946e-05
0.002259320351495177
1.457294181894854e-05
8.146534748656163e-06
1.506863769343004e-05
1.124677923229004e-05
1.198126601323866e-05
-2.414154737548791e-06
-2.15439519422246e-06
-2.435575167153122e-06
-2.372727304134423e-06
8.849072699253291e-07
0.0005522334114939535
-1.341155328487609e-05
7.277353169460523e-05
0.002211245971654144
9.392671794228344e-06
-0.000104879750977045
5.793964099614124e-06
0.002231943714856387
2.459495345754319e-05
2.14912205147121e-05
2.062544263569009e-05
2.340812702998095e-05
-0.0001275662301550939
1.243587303665721e-05
1.29003170699389e-05
5.910853734932361e-06
9.840824119201864e-06
8.987199623784314e-06
-1.844101138043881e-06
-2.04879534954907e-06
-2.030472701984739e-06
-2.057465494065952e-06
0.002242514120066064
1.249923107484563e-05
-0.0001273054055207506
0.0005653922727117829
1.120215559294455e-06
-0.000560710778121427
-1.750742609010792e-05
-0.0001133973225426823
0.002308060875774691
1.646266592621552e-05
1.815846937984776e-05
1.142529922606642e-05
1.502148734993601e-05
1.449688867139327e-05
-2.48682145084409e-06
-2.830317994095843e-06
-2.733042577307554e-06
-2.857830282050432e-06
-0.002283039379303283
0.0001473371256168589
0.002328292528661398
1.618347111489548e-05
-0.0002016093725422252
6.075086724225613e-06
-0.0001588359728379691
2.67590857492015e-05
2.896093294754677e-05
3.018077108727556e-05
2.754729785485832e-05
0.0005932016673797913
1.574568564441076e-06
-0.0005851328226775743
-2.952338646595771e-05
1.129501987313881e-05
-0.0001591425149706275
0.002371170469812906
1.969206802943549e-05
1.635558678061462e-05
2.258427729702294e-05
1.931875919012835e-05
1.942086136724964e-05
-3.430074535456054e-06
-2.957735972073316e-06
-3.497198071319746e-06
-3.259012535195162e-06
1.20085114679066e-06
0.0005713677663943427
-2.050449094294001e-05
-1.458155766121527e-05
0.002066208792453268
-0.002060011544164335
3.170398814798286e-06
5.25204133425264e-06
-1.677026429274816e-06
2.331036577507491e-06
1.245826082195005e-06
-4.445079687829471e-07
-5.043761790183491e-07
-5.050547600183339e-07
-4.840280973313505e-07
0.0005188632597426873
2.783019484237915e-07
-0.00051821308931839
-2.992265480783673e-06
-0.002067343256818746
1.671525229019436e-05
0.002073891439904153
3.532928934919644e-06
-2.508426643189158e-05
1.414669501259405e-06
-0.002050867026198845
1.211827595851345e-06
5.178064430153863e-06
6.197859129862299e-06
2.178909645387313e-06
-2.2752780345377e-05
-0.002060823930249182
2.677946544739022e-06
-2.236416131411556e-05
0.002073022415834071
3.798324096094029e-06
-1.350039804288831e-06
5.55241658590789e-06
1.572585384391464e-06
2.641588351507546e-06
-5.976432392211593e-07
-5.342515224039299e-07
-5.802894799831408e-07
-6.010614917887963e-07
-0.0005157006954516299
2.143508155195911e-07
0.0005166442794533072
-2.86646595347539e-06
-0.002054267224882372
-1.285341158979615e-05
2.671261850545457e-06
-1.983051574046979e-06
5.011921820059708e-06
9.575653355947417e-07
2.072608255483297e-06
-4.258134131024415e-07
-3.688671073090444e-07
-4.026633013028407e-07
-4.238695733292154e-07
1.239135950052709e-05
0.002055125268540015
1.755628331562387e-06
-1.938448037063799e-05
1.396238265306722e-07
0.0005138859047867026
-2.579825323667765e-06
1.209720168908213e-06
-2.032546775186486e-05
5.857278914887885e-06
1.632679007410574e-06
6.621883804056364e-07
4.849481545717791e-06
2.107389659030334e-06
4.912787267474501e-06
-2.231928873232155e-06
1.947377042455255e-06
7.496360792480592e-07
-2.879699007053151e-07
-3.429756664177384e-07
-3.379343539562868e-07
-3.15859448637854e-07
2.515031427243985e-06
-1.985738459897596e-05
1.972696735103659e-07
-0.000515246751565912
-2.136697119015759e-06
-0.002080994036481251
-2.266821463705575e-05
0.002090092360459431
5.091043114074667e-06
-5.578086581372124e-07
6.343843835697732e-06
2.378653315120708e-06
3.428850190892387e-06
-7.980559916646347e-07
-7.24487757209827e-07
-7.861327512659149e-07
-8.060146387880442e-07
2.978852514446837e-07
0.0005200266106811709
-3.801352292054228e-06
1.957823935510277e-05
0.002081919305153873
3.684151959054991e-06
-2.935454156266099e-05
2.277083842006072e-06
0.002080740523544005
-3.408889493650731e-05
8.193437573068499e-06
4.393374293709142e-06
3.434998954360741e-06
7.146145280243838e-06
4.360609868670782e-06
5.925945232259484e-06
-9.703082249490488e-07
3.012882245888938e-06
1.953097763611727e-06
-6.203501632334556e-07
-6.883484798946981e-07
-6.936957748730072e-07
-6.732137942955252e-07
0.002090432209881168
4.691520678588933e-06
-3.359555623756517e-05
0.0005231028287324618
3.724822852702424e-07
-0.0005221402269487328
-4.185603820198677e-06
0.002100865398662064
-2.655664575653843e-05
5.749314781034827e-06
6.847793361470416e-06
-6.687546503302368e-08
3.921380122669254e-06
2.879374136850689e-06
-8.264247614847152e-07
-9.073052739263056e-07
-9.163542398741989e-07
-8.972951246353437e-07
3.080456820858997e-05
-0.002100993028433432
6.057679634617381e-06
-4.536423202362514e-05
4.869304373208214e-07
-0.0005275039381570322
-5.79097819561283e-06
2.52712704916354e-06
4.43019379207162e-06
8.099851866600607e-06
9.157382847867917e-06
5.386219226250535e-06
-3.994086896550529e-05
6.635519497113928e-06
4.845852099573747e-07
7.417272529255226e-06
3.450507410286425e-06
4.481449075916834e-06
-1.04254797257062e-06
-9.525859816286448e-07
-1.036172460594167e-06
-1.053870585974559e-06
4.817595109533784e-06
-3.940793241041469e-05
3.959438345564668e-07
0.0005246112795531529
-5.09022497021661e-06
8.255994486661219e-05
-0.002392021439873058
0.0007348245377877457
-0.0003451764126847895
-1.225405335640678e-05
3.078148784771073e-05
-8.558528105806399e-05
0.0007365628830283091
0.0006110139586254224
0.0006530938340325397
-0.002430451548374255
0.0007476536393437008
-0.0004286180624534352
0.0007429211829333461
0.0007279840339202803
0.0006676680218771035
-0.0004438560628529956
-0.002571518708673827
0.002701999341571952
3.082351192251414e-05
8.404583406215494e-05
8.119197505149106e-05
6.771822968934993e-05
-4.727163635837679e-06
-6.097895784833916e-06
-4.26622379999327e-06
-6.87522250821253e-06
9.111505562595624e-06
0.0001133363305373161
-0.002424949714944791
0.002450264762528685
-0.000468689148479919
0.0001143151451517136
0.0001027840132733634
0.0001038271063703268
-0.002434463186814882
0.002462086655145269
1.590589992912794e-05
-0.0004782739255765632
0.0006523104249196365
2.729155832837611e-06
0.0001054377602776039
-0.0006471410104984771
-0.002457468301479658
-0.0002898568979621748
2.728324503248205e-05
4.278958205198373e-05
4.31580598366546e-05
3.941396886648571e-05
-5.102243899768349e-06
-4.022237823312757e-06
-5.439370149107152e-06
-4.523364546088449e-06
0.0002019148259153898
0.0023847510068214
1.326166331041335e-05
-0.0002643692468868349