/*--------------------------------*- C++ -*----------------------------------*\
  =========                 |
  \\      /  F ield         | OpenFOAM: The Open Source CFD Toolbox
   \\    /   O peration     | Website:  https://openfoam.org
    \\  /    A nd           | Version:  7
     \\/     M anipulation  |
\*---------------------------------------------------------------------------*/
FoamFile
{
    version     2.0;
    format      ascii;
    class       volVectorField;
    location    "0";
    object      U;
}
// * * * * * * * * * * * * * * * * * * * * * * * * * * * * * * * * * * * * * //

dimensions      [0 1 -1 0 0 0 0];

internalField   nonuniform List<vector> 
12689
(
(1.041563099455 0.003009452402136342 -7.243060886371267e-05)
(1.138790310115256 0.004688293645105564 6.038152755781486e-06)
(1.129357556781158 0.004674960251470647 -1.053285337838617e-05)
(1.133240477240687 0.08522302200192314 -0.0003368824822143815)
(1.174024576045359 0.03380516265455189 0.004968544431386239)
(1.128358476014983 0.1007194422105124 -0.0005514338090109473)
(1.172734737746526 0.03157826333502452 0.003944450953992539)
(1.138888223912986 0.03435928710769204 7.073577821289532e-06)
(1.166458869985891 0.01157761616986318 0.0007263217738159076)
(1.138889989150035 0.004933313500870718 3.565268751389731e-06)
(1.138554934791692 0.03607501348183798 -0.0002558904326835801)
(1.171032104504221 0.02906109729659669 0.001684863236402784)
(1.168215280587674 0.01255779369894724 0.001713623879777081)
(1.11950218990598 0.0803244091891837 -0.0005288950447142131)
(1.126514988365142 0.005421390888648037 -0.0005758274832416389)
(1.107588373712345 0.08518445993879942 -0.01428128112615596)
(1.058298574684576 0.03926626853516281 -0.00833507953671807)
(1.074188242370425 0.003025584743212296 -3.997443933831866e-05)
(1.062738203179205 0.04214338545150032 -0.0005473030079791536)
(1.069979172102163 0.003715272564548232 -0.0005492890107970643)
(1.114138625065384 0.09341629805996009 -0.0007292103579234473)
(1.100200428152998 0.09616248846747295 -0.01766219151080911)
(1.05494394130149 0.04483526312994332 -0.009379537121668407)
(1.059306850746227 0.04859878195840756 -0.0006198373456143723)
(1.176231672473622 0.04313425332368106 0.004978644406582466)
(1.138613451120075 0.0454867867736773 -2.462603350241466e-05)
(1.130805573433705 0.08832160464115034 -0.003217934063132677)
(1.183755337907414 0.06765390820249133 0.002894567386811888)
(1.137953358195306 0.04767300485944623 -0.000590897143138565)
(1.184570817847975 0.07380448338712495 0.006473797064937625)
(1.174642072340516 0.03964026487221595 0.002144776634124877)
(1.145491967793945 0.2288758486480897 -0.009973691539162256)
(1.096609167194953 0.147394227227929 -0.001611425632368259)
(1.125071399707917 0.1036871582759276 -0.004879414845292931)
(1.191142085266596 0.1115189372519012 0.002866696281321098)
(1.091296025285888 0.1471316452617927 -0.01241447320371214)
(1.189187590770961 0.1213671607549476 0.00559502687281155)
(1.180508228405255 0.1799406066807976 0.0004204900125034108)
(1.134862526387782 0.2330084356587907 -0.01689669739450292)
(1.122734678404556 0.105350074212406 -0.007169342621940624)
(1.087915601623441 0.1463743882002995 -0.01681671612659877)
(1.186790554080181 0.1295774331114804 0.005471650382107143)
(1.177379101440279 0.0462177208437274 0.006205885913851692)
(1.12901444175429 0.09018120230527742 -0.004914614830557776)
(1.137379388514475 0.04909940620716046 -0.001157335646570934)
(1.184743031487062 0.08634411988020171 0.008121318102469651)
(1.172137586995101 0.003036695872624078 0.0001050868957495593)
(1.179744988326282 0.02358768192798394 0.0007361712865852137)
(1.21030777748042 0.07585019677882741 0.001663998685510104)
(1.185086260127849 0.03248599840298058 0.0009642287298672209)
(1.220510009426119 0.1012732975447691 0.001820771939666278)
(1.182911182494544 0.004668761992458366 0.001826913178935127)
(1.179482692846246 0.0007161873787766459 2.845394681293337e-05)
(1.181963967795141 0.004878250778318063 0.0002352410536401017)
(1.180392790628371 0.001032213090696949 0.0002404416282713383)
(1.220783600263558 0.02751887353280092 0.008159075832495827)
(1.24885907397586 0.04201917491249659 0.001461055675374277)
(1.251415817554304 0.04215307101413209 0.01192601230146462)
(1.218911826307817 0.02575960595814404 0.0009984410140348923)
(1.326242413856767 0.09766284023583864 0.02027558951865154)
(1.262608416191289 0.05055624363012102 0.001576673824539914)
(1.265927358768773 0.05499865544072404 0.01338233827009461)
(1.321408216561834 0.09612830476611989 0.002344780144675738)
(1.184662123208793 0.006955647240606566 0.002354724121632079)
(1.191767859821328 0.01168219979224749 0.0005301274484689365)
(1.19291386358058 0.01154884691296086 0.004177693070759735)
(1.183664865227791 0.006437175147668246 0.0002935349529587879)
(1.213263233757279 0.02194868170893681 0.00725332980932378)
(1.195624642613448 0.01384357367071689 0.0005990630114602214)
(1.196893678192211 0.01473458300582562 0.004823949080808868)
(1.211674430723927 0.02200892964458346 0.0009094342656288594)
(1.355146785037597 0.1415009301219191 0.02266884103558721)
(1.348300030263766 0.1255492908455602 0.002415201060511056)
(1.358930225503368 0.1517733079937329 0.03083081640317409)
(1.181717275796327 0.0002102081159652952 0.0003135904180861817)
(1.18148415826156 0.0006824389275021465 6.46101502874359e-05)
(1.248275755358666 0.003116253389687441 0.005737192103325017)
(1.260854573342687 0.01303881368564135 0.0009245158984894246)
(1.254833032946445 0.003454237966381615 0.00628385350248703)
(1.240756712062572 0.00999371649726288 0.0007449617084031153)
(1.301125835684757 0.006244757359978168 0.006290333577112506)
(1.268963198219773 0.01439785072688413 0.0009803411417690852)
(1.27060256366324 0.004193191705891138 0.007230212134978584)
(1.299136127968957 0.01968312876444178 0.001249053708196803)
(1.191730722965377 0.0008400172686540194 0.001863927055742773)
(1.194841234277001 0.003504389339257458 0.0003108685681692726)
(1.193410185944802 0.000921842989213625 0.00209028009248792)
(1.189674814639816 0.002684560929227515 0.0002399657549690496)
(1.204598679567093 0.001532013380534821 0.002076006360796767)
(1.196893735771586 0.003821324701746902 0.0003326483121534173)
(1.197375789921283 0.001095772947445183 0.002434001189656254)
(1.204190405602887 0.004850576481667645 0.0004155685344758333)
(1.535101763510132 0.1006369728528341 0.02642719014155641)
(1.52897618529766 0.09071380518362997 0.002702679934977432)
(1.182156678408611 0.0002888112282808853 0.0004135325839972225)
(1.183905297047296 0.001507135016134585 0.0001399798443187683)
(1.183496521739311 0.0003708990726356311 0.0008870162528314407)
(1.18192052650985 0.0008892812358404661 8.151549731633681e-05)
(1.23594342944519 0.002897159609680229 0.003527051253206569)
(1.221119162037771 0.007196857318710241 0.0005739354190032967)
(1.226050719315417 0.00246064432787258 0.003089538492458644)
(1.235192093697925 0.009158309542998917 0.0007044455799147733)
(1.31410233425446 0.00721947121635242 0.006829585793833841)
(1.361287628757267 0.03309348714980002 0.001765794211508822)
(1.346486665479835 0.008490421425281291 0.01194142668219834)
(1.311750770723439 0.02220463062527164 0.001331360473668588)
(1.188534088102136 0.0007632951872259682 0.001098821384405221)
(1.184802519758412 0.001732947017745036 0.0001576179528834055)
(1.185059209753147 0.0005580395396931484 0.0007977355615443786)
(1.188253578759 0.002424546421157262 0.0002207260501370094)
(1.207486261270131 0.001688153348332024 0.002228891238022206)
(1.217159373191141 0.006633144094285714 0.0005425344269888827)
(1.21769455326809 0.002096721356347886 0.002713125022029145)
(1.207050458169447 0.005260073011278845 0.0004411777322698323)
(1.483729301679475 0.06859911947860803 0.022136835384839)
(1.383396397008118 0.03890380191217825 0.001880849868146174)
(1.388571535225446 0.01281816710934859 0.009897939162006144)
(1.480031859195929 0.06984243338997842 0.002594692906427456)
(1.7055449243599 0.1144095233208793 0.1155467922584006)
(1.655009427523096 0.106299794481587 0.08369381025388317)
(1.179446585493657 0.006614110786907604 0.001331121047801528)
(1.177912672881405 0.001047364733819688 3.785637456469491e-05)
(1.173356692269947 0.009292465553597805 0.0003082427461021465)
(1.172576073561274 0.003069009434257868 0.0003282316661183383)
(1.173816848510493 0.00937784453156929 0.0009785695933841299)
(1.180228347087137 0.006675189786605243 0.0002640810058143129)
(1.177920211847677 0.00216300398829725 0.0004420195614205649)
(1.182601911193535 0.01145041735549462 0.002261059104104067)
(1.180253825198972 0.0238210194640358 0.002345370055558969)
(1.175867090638334 0.01601877052111385 0.0005180954346255012)
(1.189406874826949 0.01600231174710458 0.0006000646544108905)
(1.1763501452198 0.01616824800114448 0.001648623338981803)
(1.187551740005803 0.01697027690078035 0.003265509963928779)
(1.181828524682044 0.008954096398331409 0.0003427072963406869)
(1.21653781366413 0.04310243907217558 0.007106835232404081)
(1.240256860794089 0.05600926218099574 0.001595424541323176)
(1.210800433516565 0.07696887745075731 0.005335297085600672)
(1.200474696358795 0.05734138619188586 0.001441654411816897)
(1.201034260144524 0.05809949701687808 0.004613112189075549)
(1.232691479848548 0.05878539675114382 0.008785349406650527)
(1.214237247223455 0.03522245372686915 0.001141063376086886)
(1.204046361153375 0.0319624148943331 0.005646512237827858)
(1.185623209402484 0.03283504667066679 0.003075586635256363)
(1.191987887549093 0.04339967242043544 0.001201644548502058)
(1.192999593272305 0.01912776913614581 0.0006930721645116457)
(1.192548103303913 0.04391445727604436 0.003838370663013219)
(1.194566689917765 0.02359488466125247 0.004380299238993063)
(1.207702243385221 0.02993347217600529 0.001024177246049933)
(1.291754062672283 0.1978212583616171 0.02008820710274543)
(1.222444955385166 0.1988769718770904 0.007000739572178621)
(1.275970923977267 0.1196850363156401 0.01220761054922369)
(1.251690026241575 0.0673581296771059 0.001719476073558227)
(1.220786754790575 0.102918170181494 0.005847011189813702)
(1.228284851964868 0.136996393448659 0.001815639208561973)
(1.252927072309969 0.0822437897358359 0.01061431395631914)
(1.228069463992355 0.1393725999380754 0.005808619207101959)
(1.295021065248841 0.1202059904538543 0.002194992449727222)
(1.293695483306683 0.1831200717241477 0.01231143031219545)
(1.227076598000196 0.1867810419992128 0.001491994009231583)
(1.225971391019127 0.1901200706660737 0.00458085095724617)
(1.280059672619147 0.1982637518433367 0.001643414841551295)
(1.181107553612929 0.001219105541683201 0.0003494799178977398)
(1.179893252487937 0.00203408379597066 0.0001022160790612485)
(1.179623035096215 0.0007008500948898138 5.639519483166121e-05)
(1.180039326655103 0.002003691026713036 0.0003321875564006683)
(1.181223190673617 0.001160565775195734 7.083122364244799e-05)
(1.180673660698204 0.0004221027522612082 0.0001000810312049896)
(1.181971314067901 0.002073530189737866 0.0005644410971533582)
(1.182119723117324 0.004798184392265409 0.0007310234400087843)
(1.180714235174445 0.003458962982145278 0.000158439368586766)
(1.183616623669222 0.002580929783749215 0.0001542372451567144)
(1.180866184137806 0.003398856366305366 0.0004405603345727746)
(1.18327884842142 0.002928449484360496 0.000817541257144243)
(1.181654029164089 0.001542564261818336 9.134472193427732e-05)
(1.242502446855956 0.02172703024461279 0.004802451608029373)
(1.259194482223805 0.02224689723847996 0.001036643200514525)
(1.249266219508548 0.04157147477815665 0.004534692301804466)
(1.237245429565658 0.03550944250593064 0.001258252376502383)
(1.255483410380674 0.025856105255185 0.005568563576282119)
(1.23762413602966 0.03509070337366189 0.003645076616771327)
(1.239610367873646 0.01719461928632329 0.000838017601662398)
(1.231622882822669 0.01831447836257431 0.004264675886642909)
(1.219209963457969 0.02540443946406406 0.00289624379767725)
(1.227349604951878 0.0300712109219082 0.001155740139619409)
(1.220353165410744 0.01240121548649856 0.0006435605087023108)
(1.227669746269621 0.02968158914934181 0.003553077131835243)
(1.222453406032306 0.01563462380672094 0.003702811567996886)
(1.23415775145692 0.01567000305622082 0.0007872236772110869)
(1.290342962747862 0.03842775481862639 0.007445471827779805)
(1.267074236897914 0.02470892490362116 0.001106824463870745)
(1.263109626472281 0.0501183805983194 0.00455888883594531)
(1.278901083627161 0.06131177929033563 0.001848928482455054)
(1.271174943996439 0.03136443274080827 0.006316112405584164)
(1.279435923819085 0.06088544254869292 0.005843678010689987)
(1.29611963684264 0.03340902295687009 0.001404992830697008)
(1.314225409439332 0.04847330967027941 0.008572312124532848)
(1.322115912067568 0.09599928773024671 0.007677079307163286)
(1.298358121895885 0.07613769832160641 0.001966945848710579)
(1.354604842945023 0.05552839068186975 0.00199095713782639)
(1.299049115257225 0.07584972430418907 0.00568076447414452)
(1.344459179671398 0.0625097575196223 0.01037263658984321)
(1.308179461804615 0.03791359923829822 0.001508757543703865)
(1.190144782393581 0.005894305142038774 0.001567073266504566)
(1.194438873768908 0.006013254959758027 0.0003445070982754591)
(1.191956553731828 0.0114954416105476 0.001620373858528809)
(1.188527523865246 0.009811316423902644 0.0004383939244731316)
(1.188707684788756 0.009647361864223615 0.001265641586688562)
(1.193546752036631 0.007026322687882315 0.001874154350668622)
(1.18932951160074 0.004638633617579676 0.0002676930566554309)
(1.187330319034771 0.004819795850472233 0.00131814956411092)
(1.183827784323694 0.006326130305425779 0.0008395502637366771)
(1.184505746701793 0.002997989970096722 0.0001759069106486017)
(1.185839598523212 0.008024721239359723 0.0003758575812647879)
(1.185055791733327 0.003862885151246824 0.001044550309362343)
(1.186008290567827 0.007893357034083339 0.001153937477766171)
(1.187921602723026 0.004158999713540949 0.000244015965697698)
(1.202401224508999 0.009751227325612287 0.002516204431409902)
(1.196469681863779 0.006597047824086473 0.0003714066290910654)
(1.195830598743239 0.01362164568334418 0.001736054784039816)
(1.200160782931186 0.01617307147537704 0.0007049958251394256)
(1.197606289017312 0.008333611604070203 0.002157300184153181)
(1.200378737099738 0.01592456406407557 0.002153021973693172)
(1.203674125722547 0.008320403659670413 0.0004616589179153502)
(1.20804541606924 0.01143660034709537 0.002851131528770951)
(1.211934395345682 0.02169166793337201 0.002782383822267264)
(1.216454404571298 0.01136787367697803 0.0006043738139059917)
(1.20547744596163 0.01893744608839548 0.00078268027764987)
(1.21466659350465 0.01332151033051803 0.003289212818563831)
(1.205720965276995 0.01865128876641059 0.002270989814855255)
(1.206498517960356 0.009073213071146667 0.0004934472266404392)
(1.590942733318363 0.07969270567013853 0.03962624750001661)
(1.616029201738873 0.08421833038845572 0.06117244130606709)
(1.497966618297337 0.1861292498447566 0.01647584819950762)
(1.401778468300394 0.2369475234103362 0.002838047747138646)
(1.402763678632577 0.2387394021283686 0.008362769786461156)
(1.484953009133955 0.2224285437653753 0.003045223343792881)
(1.434754202885057 0.1200345362006719 0.01480728293184509)
(1.349220714417072 0.125891687304656 0.007005630479510081)
(1.374902256687649 0.06556735163392964 0.002135441498192863)
(1.377317281690524 0.1688177808522801 0.002929384503340702)
(1.383668622644946 0.08454143322805603 0.01211710170089625)
(1.378113250700548 0.1696597322830351 0.01023948490137111)
(1.458316901237665 0.1128772123978191 0.002844632820292513)
(1.5224782077856 0.2619393259348442 0.07358839469242455)
(1.404245356777358 0.2894629822328222 0.03601067472507899)
(1.401543534139002 0.30684672977883 0.04308568453525073)
(1.513832016553705 0.2315480739439869 0.05753639683059848)
(1.180935166977762 0.0002952032411309373 2.694499038622182e-05)
(1.180976744090444 0.0002901354342089943 8.142177102428628e-05)
(1.181524389705574 0.0006684345691996939 0.0001863353300543698)
(1.18115711883779 0.0004922259023753275 4.463456022041508e-05)
(1.181198222326796 0.0004814603398241583 0.0001204877197181585)
(1.260997648551795 0.0128037605547547 0.00257594367206289)
(1.253518110903586 0.01191710714299549 0.0008536233872312228)
(1.25365398640594 0.0117000427241281 0.002324839059286678)
(1.240868935556221 0.00981094553146448 0.002035334793566593)
(1.2468425235021 0.01087234619616781 0.0008041515753273895)
(1.246964479174662 0.01067520375901935 0.002242918250470212)
(1.269126094180941 0.0141460751285766 0.002655366759693131)
(1.277946448306109 0.0158705446181654 0.00106799686037426)
(1.27812639491774 0.01559501473932574 0.002969055487206869)
(1.299356374650218 0.01934710196964975 0.003469382168448955)
(1.287951117517118 0.01767508544667314 0.00113907097369403)
(1.288157685684129 0.01737032827570816 0.00306968997266046)
(1.194893670488514 0.003435896989329724 0.0008753164295330381)
(1.192961678642294 0.003222451675509822 0.0002851238732894782)
(1.193013504312114 0.003158357096581002 0.0007884603348656676)
(1.189722596192662 0.002631941994037706 0.0006632740608164735)
(1.19124193992984 0.002939830963712329 0.000264002141304526)
(1.191291695204569 0.002883240760697443 0.0007441035606040388)
(1.196948821052491 0.003747096511719055 0.000919132882442767)
(1.199128247073662 0.004136939902686935 0.0003605936567256154)
(1.199186089491177 0.004057704495284377 0.001013727670941861)
(1.204252600126033 0.004756728126298757 0.001167307141288674)
(1.201556485086394 0.004491642498095626 0.0003850048196737608)
(1.201617491829428 0.004403480082512495 0.001063393003983365)
(1.530202737779579 0.0902145322527015 0.006486050768545392)
(1.591475075648019 0.1225684770842563 0.003365775939009257)
(1.593394542016439 0.122316441334928 0.00965340769353543)
(1.18394731038603 0.001477298473827171 0.0003972705726303942)
(1.183129123248668 0.001300372025525595 0.0001193390000814707)
(1.183171257658036 0.001273539452548343 0.0003283539019712717)
(1.181960977768113 0.0008714165231808553 0.000222791183188826)
(1.18246835944266 0.001087278403685003 0.0001016050184251292)
(1.182509760636744 0.001066533359429046 0.0002896032858213958)
(1.221202828517046 0.007061412675894747 0.001576972873599351)
(1.225420500716091 0.007776958255833338 0.0006173564276168706)
(1.225510160494554 0.007632049053948584 0.001726984427685509)
(1.235293499367338 0.008987497763071804 0.00196873652319162)
(1.230099336796725 0.008451572357668491 0.0006543740008547685)
(1.230196948481429 0.008292176260935074 0.001794440985994757)
(1.361646739620837 0.03258244761680414 0.00489850209235906)
(1.342412385959504 0.02874456226070969 0.001580409741754628)
(1.342753972028938 0.02829531126348865 0.004185231870324081)
(1.312010154522165 0.02184404464071073 0.003557339270374773)
(1.326048923876033 0.02506765476556953 0.001474002734519576)
(1.326337403001461 0.02466299712409528 0.004086238985547826)
(1.184845609111358 0.001698718418886197 0.0004347314288262683)
(1.185823860743343 0.001951509946973307 0.0001791344633065582)
(1.185868385667555 0.00191398838854332 0.0005067198904850907)
(1.188299636788788 0.002376817879901092 0.0006233376518384906)
(1.186972798281356 0.002189933406056346 0.0001981166457681753)
(1.18701865439175 0.00214578337444461 0.0005474960373565547)
(1.217236609388319 0.006506685474072018 0.001520290550564704)
(1.213514688873737 0.006147012024090915 0.0005045041772841738)
(1.213589814864659 0.006028353266065296 0.001389661266380617)
(1.207116719137684 0.005159190332332041 0.00121658843468058)
(1.210151823679138 0.005674148140046529 0.0004751333392604569)
(1.210222049313549 0.005566595784199023 0.00133254414892387)
(1.383835626654597 0.03836392745725196 0.004900601580829302)
(1.409582124552428 0.04610405680041272 0.002126730180029939)
(1.410056959604393 0.04547745537542865 0.00590603889725739)
(1.480725135634752 0.06911873582934218 0.007263357878795099)
(1.44120628453503 0.05622674334106077 0.002253503782411678)
(1.441827414972139 0.05557776109388896 0.005729245542455552)
(1.182296585273481 0.002100188567338043 0.0009206430568685254)
(1.184132057101654 0.002885663863872581 0.001894208464775888)
(1.182412927036173 0.004675927001320261 0.001272342907744334)
(1.181645627273019 0.003869099928195594 0.001277689439197274)
(1.181158452008731 0.003825080725564848 0.0008172904888671742)
(1.183613118020046 0.002866254245413994 0.001319614448132934)
(1.182801716694164 0.002127127840872915 0.00133612881352218)
(1.181923359199677 0.0004029044397512953 0.0005875936448647271)
(1.181977997708053 0.0001420955218039353 0.0002648187911597166)
(1.1824226545534 0.0003913245303502965 0.0008140344231698571)
(1.181481035723391 0.0001434500955323295 0.0001875603355248678)
(1.182808463038219 0.0006964447986117276 0.0009835289075332205)
(1.184672166151279 0.0009452483341549755 0.00193557614226773)
(1.184150280125117 0.0009729997132968012 0.00139598562853785)
(1.183316037628845 0.0006789384653482076 0.00136720434263495)
(1.181426323618401 0.001171946274571199 0.0005585498569824875)
(1.180799294193815 0.001775988255160435 0.0007742987677019246)
(1.179905113460074 0.0009819012423544075 0.0001202543513920128)
(1.1814881994002 0.0004693154069864272 0.0002575634572224018)
(1.180317697938998 0.001792135852631855 0.0005608950235007823)
(1.181923557294809 0.001177771316059637 0.0007980533276378364)
(1.180992313993488 0.0004531327760751634 0.0001700578681241082)
(1.232392056106188 0.0181328647802102 0.006875033857425273)
(1.224194341116636 0.01592597224061704 0.008714335044173797)
(1.229324109127037 0.03007171945058241 0.009302858975259187)
(1.219809295296849 0.02725961962250325 0.005337804661616633)
(1.233602640264036 0.01838404269948927 0.009937918945270947)
(1.228243875613237 0.02989729640084171 0.006346594188343089)
(1.223136332591214 0.01569319356636459 0.006001105991470196)
(1.245761887738194 0.00735664149150105 0.008473883384741143)
(1.261343041208265 0.008601627822982325 0.01354772392341909)
(1.259579211086323 0.008747400420438265 0.009761832011702717)
(1.247231853779175 0.00722641757583958 0.01177648060896981)
(1.234284544053099 0.006155717829628406 0.00741454639606559)
(1.225754606164094 0.005155330381777051 0.009010592652325761)
(1.235533142929515 0.006027539822594153 0.01029333059332063)
(1.224672439511838 0.005266303202938639 0.006483723023228784)
(1.243417823946471 0.02185945189332104 0.00777499006230348)
(1.239670418780494 0.03819467380721241 0.01043137787802192)
(1.258226779656499 0.02609484087331146 0.01297176012548431)
(1.249986344820843 0.04180821061592822 0.008148138923366383)
(1.256546218716284 0.02564932807579495 0.008960361400910135)
(1.24483656891071 0.02224687515717701 0.01131341089246509)
(1.238405504926639 0.03775812861299645 0.006790049320932617)
(1.316343947684761 0.04922468649971903 0.01382990321402871)
(1.303182656519134 0.08423145313975128 0.017363868987691)
(1.351394577038115 0.0645483175472663 0.02415191444619948)
(1.323396540027889 0.09592818196863563 0.01408491158588085)
(1.319635629592218 0.05069808179765512 0.02025434050066538)
(1.300672357053421 0.08258824848171166 0.01110058356762856)
(1.347105212066995 0.06248986922378714 0.01659315706325126)
(1.29744442137378 0.0131558171063102 0.01324154481419317)
(1.278647242245489 0.0105838651672978 0.01568091275963024)
(1.276470367009025 0.01071603124518303 0.01128876113409827)
(1.30020786978473 0.01302679538641611 0.01835910977773102)
(1.291946942770201 0.03823557363411477 0.01194660737255855)
(1.28237259553671 0.06180682399674477 0.01543500982521611)
(1.274557087171203 0.0323814266996974 0.01489566630609101)
(1.264192397311362 0.05419534290347618 0.00864490054207186)
(1.272501718187533 0.03167413827213705 0.01021011076629126)
(1.294497010795702 0.03911703249172641 0.01732350047799591)
(1.280375427132501 0.0610740915135442 0.01059356872634561)
(1.324179041342054 0.01685205444795257 0.01568964805098397)
(1.364388504840588 0.02202535861763805 0.0264004978295746)
(1.327840894505614 0.01680089343428234 0.0217784686384674)
(1.359290821475966 0.02195683492425372 0.01903491387541883)
(1.18769458872991 0.004740617438506657 0.002129655573638053)
(1.18594439860635 0.003924535736807525 0.002461789457670523)
(1.186864079375469 0.007855338688331943 0.002945072220403825)
(1.184142954054531 0.006899846217109012 0.001535876305843417)
(1.185404925265314 0.003881386637172709 0.001699948906303463)
(1.188259865168096 0.004777679752892884 0.003063222532503261)
(1.186324179857498 0.007850586649932221 0.002027523062938048)
(1.191200248208153 0.001973731108069083 0.002720270697323899)
(1.195346714505938 0.00227943314234011 0.004469141357694885)
(1.191803975094145 0.001923079316920882 0.003778839009604803)
(1.194700217203744 0.002341951793018911 0.003220934453959639)
(1.188308761809697 0.001604042832363529 0.002259548029683716)
(1.186515988095505 0.001260044436185124 0.002520529371220962)
(1.185973581434851 0.001293771756512093 0.001814270711961017)
(1.188877936066295 0.00155959937602929 0.003134300388847762)
(1.19053285918207 0.005909084924934717 0.002546285172594304)
(1.189632905279966 0.01048195880161733 0.003519131095512958)
(1.194598906463793 0.006988555393853132 0.004360910230678389)
(1.192306950935877 0.01152761479860067 0.002861302451074801)
(1.191132472611763 0.005975023291634143 0.003686533482970259)
(1.189058157340721 0.01040506035160942 0.00230828903291977)
(1.193958442699571 0.006927485807877548 0.003028045632084015)
(1.208585822454874 0.01146436564791649 0.004624681812783923)
(1.216193389945025 0.01332324140609084 0.007663341070991961)
(1.206988622812747 0.02016181106963966 0.006338212515598035)
(1.2124068847149 0.0218573268002349 0.00494878319198518)
(1.21526140935038 0.01317093108519829 0.005308762115108133)
(1.209422245147668 0.01161317347368302 0.006705435517633115)
(1.206202923795108 0.01999700081997486 0.004158813777172442)
(1.20383418725831 0.003256199282968553 0.004336313391649359)
(1.199583065162724 0.002723944353813235 0.005208864520633683)
(1.198882809480868 0.002793049806723075 0.003749413101559845)
(1.204600228332466 0.003173575682269723 0.006018227481175416)
(1.209676483497201 0.00384018098265286 0.004969029303435432)
(1.217504638914761 0.004354969650595972 0.007896999663630985)
(1.216553593557287 0.004459896963618926 0.005688842959522131)
(1.210525279614514 0.003750780417041495 0.006904361184359407)
(1.20288542272224 0.009628728466081173 0.00406402757553035)
(1.20148692262198 0.01607389225466283 0.005585868145145305)
(1.198748168576364 0.008448638726138028 0.0050725830372838)
(1.196234102291718 0.01462428197003052 0.003168420906812064)
(1.198054738972349 0.008350053683955609 0.003502002591440294)
(1.203641126858182 0.009724898191704636 0.005859460020682085)
(1.200779485446975 0.01602688155029229 0.003815788418996415)
(1.438739557398511 0.1208502166717069 0.02391882061188915)
(1.38251509692656 0.173353618699768 0.02614871388272921)
(1.392900969644244 0.09022824793250465 0.02899943096667209)
(1.351740423853523 0.1377573292124435 0.01434896875144515)
(1.387195293747941 0.08644433483828677 0.01958255790911515)
(1.445694663928595 0.1274259389885799 0.03546762795380562)
(1.379681639872892 0.1685371754685067 0.01883631018023145)
(1.478853285794246 0.0456673739183768 0.03041367704847798)
(1.415408169699641 0.03120303033864688 0.03289263670113023)
(1.407728840082719 0.03067037827314545 0.02356204505148605)
(1.491668851227836 0.04759626850879436 0.04307043399174486)
(1.466895958084279 0.1540860139351388 0.06123507754760742)
(1.363990129407546 0.1591546197674076 0.03830839435510275)
(1.385314700854114 0.18789335332995 0.03495963751701842)
(1.400523189156514 0.0968235330489657 0.03905578988231226)
(1.388832493147242 0.1982793916714413 0.04282218484752345)
(1.410423166314328 0.1048752904573169 0.04975459764599711)
(1.454993624162034 0.1392275898021556 0.04797613290853723)
(1.536584049952747 0.05960012672592969 0.07649837833214061)
(1.426366273814679 0.03338910921022668 0.04420552194668967)
(1.441123557420124 0.03673752992883084 0.0569563551716307)
(1.510887566899261 0.0527895076282806 0.05854704445244155)
(1.182929577785293 0.02631847080186092 0.005782951532699468)
(1.176281904046594 0.01032258479823529 0.002416939609143706)
(1.188427591342363 0.03639828112648025 0.007565585223714445)
(1.203836915726934 0.06499009109658815 0.01120525767192726)
(1.220904798288251 0.1279668899370569 0.01609512260621564)
(1.221488685952376 0.1161403718363189 0.01352022763605688)
(1.190638668855611 0.03961800579564047 0.009872861453869149)
(1.207844207306011 0.08018104470224612 0.01701876188484271)
(1.196381745161569 0.05076806734253416 0.01421520750690128)
(1.352840429245426 0.2876781195173992 0.07442225469223002)
(1.313193754581145 0.1158716871843001 0.07093043968948266)
(1.327140508301958 0.384568778522878 0.05293987187263955)
(1.356777803713928 0.3316407699526281 0.07082133690875395)
(1.45157319316407 0.1585720373394173 0.09034949569719464)
(1.373960235461475 0.1905668997409228 0.05424218839573043)
(1.295338260973688 0.09102731675596437 0.06265183898688162)
(1.249114246905458 0.05178597881737958 0.04149207418872629)
(1.185075402741264 0.02856859254697675 0.00757890992015652)
(1.183989900140492 0.0140867654008296 0.004785963189911998)
(1.186763819529107 0.02443846353900416 0.007986745091375711)
(1.178292714496278 0.01116807471157174 0.003179979880564864)
(1.361880483638817 0.2231082554741615 0.07827318570686884)
(1.283925284753384 0.07521674517836097 0.03901801588005496)
(1.305269475661759 0.1028277331964629 0.06334459652802245)
(1.351620698240083 0.1480883694644556 0.05792414550772957)
(1.730881542267789 0.6879677635380935 0.1940808120898861)
(1.746486345653435 0.3723465807384289 0.1959112733648162)
(1.78279259600489 0.1568346120652469 0.1478723677587454)
(1.850033680295267 0.1622235269141372 0.190552501525171)
(1.633680799611552 0.06950236265999357 0.2627869331945212)
(1.488206063505735 0.0626728908858125 0.1685514042225195)
(1.648386236236296 0.371687543687401 0.2678326470884788)
(1.305000900183448 0.8481041559520661 0.01742072598145011)