/*--------------------------------*- C++ -*----------------------------------*\
  =========                 |
  \\      /  F ield         | OpenFOAM: The Open Source CFD Toolbox
   \\    /   O peration     | Website:  https://openfoam.org
    \\  /    A nd           | Version:  7
     \\/     M anipulation  |
\*---------------------------------------------------------------------------*/
FoamFile
{
    version     2.0;
    format      ascii;
    class       volVectorField;
    location    "0";
    object      grad(Phi);
}
// * * * * * * * * * * * * * * * * * * * * * * * * * * * * * * * * * * * * * //

dimensions      [0 1 -1 0 0 0 0];

internalField   nonuniform List<vector> 
12677
(
(-1.046302156174968 0.02694741697530259 -0.004977488900211752)
(-1.138785712034329 0.004692547395094546 4.358679265444436e-06)
(-1.101734183008044 0.004152944835401372 -0.0002646794266579813)
(-1.128349948708302 0.1007171417015962 -0.0003672476090779186)
(-1.13323181418053 0.08522048721235626 -0.0002241168515736205)
(-1.183409006602435 0.2740953727027314 -0.004127747421468061)
(-1.221924635802575 0.1020097541507653 0.001325106968673738)
(-1.221471852773576 0.116142714417639 0.01352126437172876)
(-1.209713446958458 0.2491532882633793 0.0005189623877230507)
(-1.182924203812982 0.02633795818872535 0.00578644235486735)
(-1.172304520848987 0.003043928829242002 4.07366118703741e-05)
(-1.179683526519862 0.02347150115428143 0.0005318331474023883)
(-1.176278391728812 0.01033366162015666 0.002417680845802607)
(-1.188419951290134 0.03642091372159782 0.007570987993703257)
(-1.211271528176247 0.07644757782937071 0.00119896214725093)
(-1.203821969411246 0.06501208099500209 0.01121066980816897)
(-1.185020919214153 0.03229551578756881 0.0007005945995525396)
(-1.32720835334321 0.09171578175725804 0.02147265355623445)
(-1.26293095471809 0.05104671296763706 0.001107002638661513)
(-1.26456400201949 0.05190041013307127 0.01489487695275851)
(-1.322310136230241 0.09706374397648843 0.00166831268952885)
(-1.182965340407369 0.004236741094544015 0.001918887787803884)
(-1.179440029618405 0.0005252581117319644 -4.40275882273062e-06)
(-1.181980649273937 0.004216803551799739 0.000117307143941803)
(-1.180320044504842 0.0009773681205051245 0.0003280314385799591)
(-1.220085042575418 0.02579139767206838 0.008918282201238217)
(-1.24909184210216 0.04242947919546441 0.001018281436931715)
(-1.252067183793694 0.03917127453927228 0.01267251236813181)
(-1.219140509136171 0.02503264456886884 0.0007035110612170501)
(-1.352197900069491 0.1362817026055328 0.02599985519558556)
(-1.391756010536696 0.3572464524943367 0.02028909990516941)
(-1.349692276039845 0.1267694711529382 0.001750131038455691)
(-1.355591438691971 0.1469694743834746 0.02715808638580634)
(-1.371168326489423 0.1860467198528257 0.05736387684833521)
(-1.18446414914533 0.006477182343343283 0.002611042057220542)
(-1.191842823739578 0.01050339500327961 0.0002362136486000398)
(-1.193098185904452 0.01058029554444915 0.004448021898036694)
(-1.183408055335619 0.00636557390040191 7.622965999159771e-05)
(-1.213654033993048 0.02025657112215659 0.007703252785783752)
(-1.195166729242655 0.01351443863037886 0.0001688184939298501)
(-1.196511152298114 0.01371156597903518 0.005324626589903045)
(-1.212591663550091 0.02003565701484412 0.000344058283832019)
(-1.290051855223787 0.003215529378367469 0.008436619840945177)
(-1.268943162938963 0.01426721670790943 0.0006448943956798488)
(-1.280231867719899 0.002838681277176414 0.007596649114146336)
(-1.29911566572537 0.01950627542176731 0.000821536257659349)
(-1.180799643973705 8.416864688192748e-05 7.032469871526988e-06)
(-1.181472274845876 0.0005489398876461306 2.575501292607748e-05)
(-1.241598043726065 0.002035851040313702 0.003765575674682475)
(-1.260834699733503 0.0129189413366659 0.0006082154229397488)
(-1.262630317640968 0.002323680905460237 0.006554754281879412)
(-1.24074592619425 0.009859040326346437 0.0004874677469156671)
(-1.75625817519699 0.3659109294019464 0.1956113577623515)
(-1.601024716757623 0.1042321841787926 0.02987695580318362)
(-1.528604212919722 0.08985538315838634 0.00176738006942594)
(-1.763340125770003 0.1162178603967073 0.14820317332373)
(-1.880327913317544 0.1535464841825751 0.1888714740853593)
(-1.194897832929186 0.003026891847783088 0.0001166788039338676)
(-1.189482451841906 0.002459547982540557 7.815077438756364e-05)
(-1.196658180648453 0.003496435304896624 0.000105843095753795)
(-1.204343871641506 0.004213763911492722 0.0001488799364415718)
(-1.31407326602177 0.00458275129161458 0.00684186408116868)
(-1.361249399545654 0.03279224422118563 0.001159382318452621)
(-1.345751883868699 0.005955456114355448 0.008197132137130008)
(-1.311727994233633 0.02200423553140008 0.0008750643521411111)
(-1.183900089797986 0.001271657824146126 5.704723186474897e-05)
(-1.181816286592462 0.0008548854628040384 2.329483170451618e-05)
(-1.235995811802856 0.001825920888209066 0.003526154102606385)
(-1.220986714739752 0.006624640868930741 0.0001518690547826316)
(-1.226511708435376 0.001367183217055729 0.004412566673636468)
(-1.235222352215956 0.008961446952815488 0.0004586065696779864)
(-1.492521425858702 0.01436290455466427 0.01376755234671181)
(-1.383344453116257 0.03854681797670827 0.001233168766854364)
(-1.388509791562904 0.008128241095141759 0.009933511837238057)
(-1.479836117328341 0.06918656430055181 0.001698096299823467)
(-1.693899996006413 0.0816145947716774 0.1201814983786666)
(-1.649503000678817 0.06955555647388234 0.08459579031766015)
(-1.184661965500275 0.001601515337093118 5.098847976563866e-05)
(-1.188270419745193 0.002077422202548699 8.586451771112125e-05)
(-1.217497420971181 0.005751866212111319 0.0001817869923862271)
(-1.206820334158457 0.004821016236686401 0.0001324046760599706)
(-1.172727381583943 0.0315936290394228 0.003950309658671894)
(-1.138877511075332 0.03435648768705871 5.564296101236052e-06)
(-1.165179286999453 0.003776253108511476 5.219980882546662e-05)
(-1.138886456362489 0.004938806218968368 5.041428142706612e-06)
(-1.138796823246314 0.0252280022444129 -7.718513432876897e-05)
(-1.170651506634573 0.02861231017392125 0.0003810649157242919)
(-1.158946519539234 0.01401328078772074 0.001041903674295349)
(-1.081572436347082 0.1293282456708556 -0.01171482881594496)
(-1.058988769789291 0.04904911218048321 -0.002973325799689205)
(-1.126356565483943 0.04598633718188726 -0.001550331758074386)
(-1.070784390886398 0.01991040785788556 -0.001955226006458546)
(-1.061904221824826 0.04240916353960895 -0.002391788270426044)
(-1.14545554577237 0.2289130869496926 -0.009959614136144945)
(-1.096602600127127 0.1473925769560012 -0.00107381414226256)
(-1.125065117606076 0.1036882639063158 -0.004879338104276575)
(-1.191388023387483 0.1098369673898039 0.0006343614907499317)
(-1.091290143677569 0.1471330343491587 -0.01241157188788183)
(-1.162982478200363 0.118631752507555 0.0003035761611714969)
(-1.160730639231634 0.2183487389249422 -0.000461165056093952)
(-1.176222995594766 0.04315103323686786 0.004985780162026571)
(-1.138602954330461 0.04548218035830256 -1.547080222279529e-05)
(-1.149372258881279 0.07660722279343488 -0.000109066613193203)
(-1.188218626176456 0.08566999161688157 0.0006705030579261931)
(-1.137946344464913 0.04767595471475539 -0.0005891476842411128)
(-1.184559148117568 0.07381896674555991 0.006478380792970532)
(-1.174284542100713 0.03900339096283151 0.0004859342686294854)
(-1.297105949369588 0.1998398083688838 0.02136498174507423)
(-1.21591233542702 0.2121021465101681 0.007304121806390157)
(-1.256443545106642 0.3356082252060584 0.01243115095784634)
(-1.195656824086995 0.2628602112075902 3.033937186680118e-05)
(-1.292861549274204 0.223916221312161 0.02789508512352228)
(-1.222465275470703 0.198824677034581 0.007011324237471157)
(-1.276978019357965 0.3090718307427387 0.01434500216838609)
(-1.278100533367929 0.1211571392669005 0.01236555375582592)
(-1.251655080286955 0.06737168168242234 0.001140987976835561)
(-1.220761342461271 0.102934344316079 0.005844324896878202)
(-1.230467545737721 0.1378254109441256 0.001343372110486161)
(-1.228050084190369 0.1393635709094492 0.005811844316237804)
(-1.25398321849361 0.08321326421848164 0.01062365699143649)
(-1.294970618372143 0.1201890439276658 0.001460256680088916)
(-1.298444650671607 0.1850936311478954 0.01288048863845256)
(-1.20310023623488 0.2544594050390709 0.001231304393528175)
(-1.230385907039246 0.1873488284329804 0.001130631756191188)
(-1.315038266310908 0.3222295675452564 0.001126879419882503)
(-1.225978339042529 0.1900575606685577 0.004598904634378686)
(-1.288658260238125 0.2894649360302572 0.009430421604963853)
(-1.311169404167523 0.1527374688519181 0.001387575908977438)
(-1.179620935680548 0.006675355714022517 0.001244534724409705)
(-1.177888386385004 0.0009244536217547435 2.098874510173761e-05)
(-1.173286823902358 0.009244139596794787 0.0002184517932477078)
(-1.17256467027773 0.003088929259030717 0.0003089805177444538)
(-1.173802295374064 0.009412919370294391 0.0009961729325519112)
(-1.17911062390797 0.006390204970803938 0.0002533532658460265)
(-1.178006276548692 0.002190108327182232 0.0004973117887385679)
(-1.18279723407611 0.01156468466988821 0.002110658423011575)
(-1.180237262753945 0.02390236462753314 0.002407599763313534)
(-1.175814106806811 0.01594302396803095 0.0003724170802213143)
(-1.187017495522609 0.01686454768552597 0.000685409306018286)
(-1.176337502932355 0.01622706776859336 0.001688524044539811)
(-1.187771135508647 0.01713884498224092 0.003051598610415378)
(-1.182133480254713 0.01138599504097306 0.0004735448835110361)
(-1.216846781083393 0.04357817250524889 0.006950841117486576)
(-1.240206352593421 0.05603440709602884 0.001057944923254511)
(-1.210780130524205 0.07700153662501993 0.005333237304066957)
(-1.201235601576722 0.05790220056083929 0.001060590723606316)
(-1.233267234007884 0.05945590274551846 0.008747034786640009)
(-1.201033048871918 0.05816072825594518 0.004626320551405699)
(-1.213995077421976 0.0346938598879318 0.001132176976712796)
(-1.20434847363647 0.03231442122793359 0.005409355466794458)
(-1.185604346218081 0.03293188883201364 0.003165463522986529)
(-1.192055929623008 0.0430028800661168 0.0008739615483771487)
(-1.19386404488345 0.02343366408487116 0.00093052185529425)
(-1.192545563580258 0.04400492604679163 0.003952716490773667)
(-1.194815998135496 0.02383333720698515 0.004114667330398654)
(-1.202521695204441 0.03225052676792144 0.001323628633439989)
(-1.290477976161561 0.03901097104000698 0.007365259573142425)
(-1.267050669400563 0.0247134636113708 0.0007297232922480846)
(-1.263079189751214 0.05012537082258439 0.004537333464929382)
(-1.279344636077416 0.06190783441590385 0.00129923428958291)
(-1.27126723748269 0.03183049913886895 0.00625439809919559)
(-1.279403638517676 0.06088821085232002 0.005807274459779819)
(-1.296099439519505 0.03341418336061638 0.0009270035742770818)
(-1.314421562625353 0.04920653024229129 0.008497174894125933)
(-1.322049236572258 0.0959892675580815 0.00764082644989439)
(-1.298977650774682 0.07687459266936723 0.001396941566703599)
(-1.354565980185309 0.0555275001952208 0.001312744894782324)
(-1.299007317399284 0.07584732081033591 0.005662785912806377)
(-1.344758041148885 0.06348938803993383 0.0102760766995974)
(-1.308154657821525 0.03792000273221133 0.0009944588337955651)
(-1.181093239395279 0.001243117680574176 0.0003506448951925801)
(-1.180552163167539 0.0001575928352314991 9.279774052121918e-06)
(-1.179732372294568 0.001942826583875146 7.182103403555102e-05)
(-1.179584943595491 0.0006390622851461966 5.311968516160198e-05)
(-1.179905108895737 0.001977005401943026 0.0003568437284052179)
(-1.181058791137244 0.001235020755612316 5.855926723063766e-05)
(-1.180640998778012 0.0004334800855309463 0.0002109313431293957)
(-1.18198023531014 0.002193070163575028 0.000568337740637053)
(-1.182143438843474 0.004214246624981367 0.0008303948623831926)
(-1.180599945844407 0.003556190735970944 3.313754982438693e-05)
(-1.18311092236653 0.002923541041986247 0.0001818096587400838)
(-1.180757810134797 0.003579676177849015 0.00068431205308851)
(-1.183283668737577 0.002941713502703643 0.0007929327641547035)
(-1.181815820917713 0.002183701462585026 0.0001302537971362346)
(-1.242535222465714 0.02202887685870189 0.004743809695877973)
(-1.259170823937163 0.02224930569292586 0.0006836864229179285)
(-1.249230363994053 0.04157954178074168 0.004500980955209782)
(-1.237406057187891 0.03584832173319826 0.0008743764042186457)
(-1.255544783138929 0.02623972957946601 0.005503938939174702)
(-1.237577636956833 0.03509310470504112 0.003616127952655935)
(-1.23953022840263 0.01715730189281799 0.0005451062141344414)
(-1.231628411051096 0.01850191124329443 0.00406912794903978)
(-1.219368709011498 0.02513832363217988 0.002918491300202825)
(-1.227504689378117 0.03047794585095668 0.0008162948974122298)
(-1.221774979322935 0.01574187809898116 0.0008909775336502774)
(-1.227638807829846 0.0296468309252856 0.003505939367913414)
(-1.222595643155219 0.01575527446274487 0.003519273267350969)
(-1.233956289063038 0.01558803598701858 0.0005014387706208866)
(-1.360217471153149 0.4343843059580404 0.04864585880107505)
(-1.510154644377403 0.4752662265258545 0.1070530542867265)
(-1.518597566925436 0.03871900540673615 0.1143922132714202)
(-1.666141678182885 0.08273038259798453 0.1715035690427199)
(-1.584275614939711 0.05532082786098825 0.03941740971902141)
(-1.608951428179227 0.05809016736775632 0.06341532034816019)
(-1.500849522768911 0.1899700301428812 0.01656683961683032)
(-1.4061572571863 0.2388038651864067 0.002101677113947583)
(-1.402637074502691 0.2384439522979042 0.008400496082753062)
(-1.485977965784133 0.2162460619465053 0.007675204704316228)
(-1.435750042405985 0.1222074072360151 0.01474477577886032)
(-1.349117285817905 0.125864059585451 0.007008075120229267)
(-1.374848233156741 0.06556914285774919 0.001405840307770488)
(-1.379659004606678 0.1704161022021943 0.002122874704078537)
(-1.384163737346246 0.08590991543407708 0.01204936288786317)
(-1.377945630489595 0.1695798555512623 0.01022892649571137)
(-1.458125693150192 0.1128450022295189 0.00187290033416806)
(-1.530094573452595 0.3090051312347663 0.08555281457513496)
(-1.381925973092981 0.3760538116176598 0.04916357315483491)
(-1.51894940034992 0.3703555615105167 0.09588327085055832)
(-1.394214440940559 0.3484496039621172 0.04623395616439124)
(-1.523666065824612 0.2603765457619714 0.07356526429889862)
(-1.401496253891149 0.2897067714986846 0.03257458157237367)
(-1.400470032234334 0.307712436080083 0.04498160002512229)
(-1.514091655041542 0.2288075247862512 0.05774316002070445)
(-1.19014095658336 0.006100190304405441 0.001536464368565775)
(-1.193326155449371 0.007100411562970277 0.0004168080203886642)
(-1.192048100369602 0.01050560974252401 0.001970112619367145)
(-1.18818049040608 0.009593689294076765 0.000123242128088247)
(-1.188375609741592 0.009631758890842191 0.001778330209920439)
(-1.193543679964789 0.007136146772329907 0.001816073507945155)
(-1.189937332889395 0.006069511840324897 0.0003526992484905644)
(-1.187323441606774 0.004876601487529373 0.001277349155000431)
(-1.183584783256863 0.006396657411746835 0.001197815911491293)
(-1.184871527206072 0.003985404755865362 0.0002358529100579046)
(-1.185872393580425 0.007132580337331626 0.0001745563385187207)
(-1.185054001903422 0.004006313246907417 0.00102764871265836)
(-1.186053948895913 0.007130706141793789 0.001373712401722661)
(-1.187131357586743 0.004851568731111591 0.0002930796342644069)
(-1.202444262367258 0.009945005226210892 0.002429667323190845)
(-1.197388869223087 0.008592125404155736 0.0004844160804084297)
(-1.195392047920742 0.01356073355892806 0.002443020570962625)
(-1.200304872612529 0.01466549998245822 0.0003052852652130321)
(-1.197622227554136 0.008633898780935132 0.002109925596112892)
(-1.200543487245414 0.01466965809972009 0.002656349754386358)
(-1.202193243777922 0.009898372949403583 0.0005578099559084535)
(-1.208172154528139 0.01188724125121292 0.002763043302495907)
(-1.212802534773959 0.02008502147783261 0.003381956163796807)
(-1.214530942115081 0.01344281406413079 0.0007214444596357914)
(-1.205052942816063 0.0186713651129068 0.0001972232125691389)
(-1.214883180220163 0.01352327406471905 0.003113574544457573)
(-1.205291114496991 0.0187192867031855 0.00324378556910537)
(-1.207899916977144 0.01183544873467367 0.0006352611518568535)
(-1.269106719563091 0.01399657020533286 0.002649914191025058)
(-1.277926999190304 0.01572786315448429 0.0007026884852258993)
(-1.278107819501089 0.01543091115294965 0.002961374389574108)
(-1.29933679083184 0.01914389926252171 0.003461332064591875)
(-1.287930969918433 0.01751600786998295 0.0007491680501828301)
(-1.288137929846091 0.01718834216399268 0.003064585476449947)
(-1.180878353066961 0.0002704106569267505 2.00284443702307e-05)
(-1.180839912789487 8.103803870427834e-05 2.401349635449323e-05)
(-1.180920903757832 0.0002734660445125238 9.269391788309687e-05)
(-1.18151239163981 0.0005458449962426633 0.0002251856611007546)
(-1.181110723589308 0.0004929243992622341 1.318778523989307e-05)
(-1.181148912140812 0.0004951051461250881 0.0001851421608707598)
(-1.260979191532546 0.01266653556249906 0.002567806690562122)
(-1.253497946026362 0.01180254471442738 0.0005611688097192536)
(-1.25363586405494 0.01157079147754823 0.002318133950394374)
(-1.240864722185025 0.00967343609884995 0.002023872595921726)
(-1.246823975651181 0.01075743872451097 0.0005279351777619654)
(-1.246950120563086 0.01054877341331311 0.00223220976454303)
(-1.745744021506886 0.5763378525708875 0.2443391670888666)
(-1.529831942542872 0.08925199814151591 0.006495620842498918)
(-1.590647106436289 0.1214308044835869 0.002213564340197516)
(-1.592565045906418 0.1210717658667118 0.009640091561054293)
(-1.194953364687013 0.003009048283937483 0.001142693916778989)
(-1.192765693005521 0.002923073334898859 9.366065364953064e-05)
(-1.192819098884898 0.002916941045369126 0.001076951191620224)
(-1.189532562085025 0.002455018622630197 0.0009081425118108291)
(-1.191297091213814 0.002553018014964789 9.945969862477389e-05)
(-1.191348832785956 0.002537487546707154 0.0009701646920276762)
(-1.196715626525061 0.003487846913687657 0.00126191588357962)
(-1.19924961478104 0.003612412567204993 0.0001307863793857821)
(-1.199309122650337 0.003591211561183318 0.001331949847809257)
(-1.20440815790723 0.004189236855294817 0.001532547394129576)
(-1.201338486072106 0.004081395652664627 0.0001215488854797643)
(-1.201400221117899 0.00407043731817891 0.001458160537048135)
(-1.361610174733974 0.03223715391210324 0.004888431568143854)
(-1.342381517510227 0.02848357361954999 0.001037812998787523)
(-1.34272378201269 0.02799746324157652 0.004180541427337723)
(-1.311987795574116 0.02161490717646289 0.003552354939035553)
(-1.326023701247213 0.02484126452571812 0.0009687958839400878)
(-1.32631332987696 0.02440297866956658 0.00407735541709088)
(-1.183944379443177 0.001262241349997571 0.000506929890722625)
(-1.183031578874234 0.001196425687836956 3.894510343385972e-05)
(-1.183074902694543 0.001196571126103078 0.0004529734096431898)
(-1.181861711893734 0.0008568945726488883 0.0003147561888367712)
(-1.182468550500421 0.0009294117993386853 4.13436541395419e-05)
(-1.182511943228207 0.0009211743554685645 0.0003685163762893694)
(-1.221049379126604 0.006587886729844036 0.002178998344625638)
(-1.226142745477225 0.00678903512078877 0.0001765819778641992)
(-1.226192509677474 0.00674612726681021 0.002213231714787794)
(-1.235332638374907 0.008806888273337208 0.001952349336599284)
(-1.230351217758121 0.008054128962085546 0.0004233360636967333)
(-1.23043716769438 0.007966861683830064 0.001786706536974185)
(-1.383784900369822 0.03795695490497104 0.00489698229842659)
(-1.4095084283747 0.04567870386506593 0.001394009575510626)
(-1.409985561407934 0.04499075479345276 0.005894688902531114)
(-1.480530733813146 0.0683736159886178 0.007251935182779935)
(-1.441091895262893 0.05570215399442237 0.001474285689142192)
(-1.441714531873242 0.05498173381337234 0.005728294765254003)
(-1.184707019006175 0.001600099735997124 0.0005977471721141186)
(-1.185846912873714 0.001681560954673852 6.991255222612087e-05)
(-1.185893094222517 0.001670208367411924 0.0006538827463319616)
(-1.188319217610399 0.002064350388044496 0.0008060908436698337)
(-1.186824195502348 0.001991440656187843 6.587242853121925e-05)
(-1.186871414760518 0.001988743723016211 0.0007473201098742609)
(-1.217574507059932 0.005714656181720116 0.001991535305576649)
(-1.21334527601676 0.005572965506203335 0.000148189385538268)
(-1.213417579799117 0.005553988753936953 0.001905774709662478)
(-1.206887028977531 0.004806304043816299 0.001675509230766086)
(-1.210434766090516 0.004970136632319419 0.0001621905585891291)
(-1.21050392301764 0.004940570964759527 0.001754803977755138)
(-1.330916087223257 0.09844255344338602 0.02581685930349457)
(-1.277467737837477 0.06350096050625897 0.03456177284163294)
(-1.346407945578878 0.1206318881211962 0.0499133525091574)
(-1.266661127880297 0.05425874423400277 0.01637084216222463)
(-1.183657452291661 0.004443199075012424 0.002325916105411526)
(-1.183922738648227 0.001147652084464448 0.0006746692300746143)
(-1.18678585229129 0.004708500436573246 0.004337359246883285)
(-1.180965514550446 0.0009437603639068069 0.0002660915027216115)
(-1.185164183551819 0.006593228737210161 0.002914149267213677)
(-1.193716938385579 0.01102216971092464 0.008658020802527241)
(-1.19395300871152 0.01100646838230383 0.005284652308421066)
(-1.188410506880112 0.007304004528256247 0.00579443683046281)
(-1.221340005228338 0.026555173610287 0.01007430497213407)
(-1.263173930140586 0.04665359017818328 0.02967354601813084)
(-1.254037954872659 0.04107033036552847 0.01505486505056537)
(-1.227495391749028 0.02992147325442062 0.02046901597079225)
(-1.214837976886575 0.02107296772814631 0.009149408645487024)
(-1.201521583764929 0.01559092776709802 0.01190922619562117)
(-1.21244783155827 0.02156565996411705 0.01574866840164126)
(-1.197382848117397 0.01405470218088823 0.005989260624237532)
(-1.31630318436683 0.04874230045749742 0.0136208061854554)
(-1.301179695829457 0.08001914212441703 0.01960577087781388)
(-1.351303406026679 0.06386928805127293 0.02412764537967207)
(-1.324550077393291 0.0902438540284729 0.01269558513678478)
(-1.319594641008393 0.05014000706912184 0.02021880115441198)
(-1.298599190290563 0.07831030608824133 0.008756603140342512)
(-1.347019932484254 0.06190997098849575 0.01636329626383374)
(-1.297310848382829 0.008604207004387427 0.01297243128636314)
(-1.27863153248704 0.006738799736086225 0.0157440633804103)
(-1.276369458919563 0.007005265560264131 0.01106092875118194)
(-1.300182298746276 0.008294144771399737 0.01844017289294348)
(-1.291919188299632 0.03786937199053479 0.01178224877508333)
(-1.283213026966014 0.05763042728054149 0.01641572102520344)
(-1.274540081136694 0.03201968093505267 0.01486204667406564)
(-1.262797429259845 0.05099586109912308 0.007061565735174998)
(-1.272481125886949 0.0313584792264673 0.01006170366590577)
(-1.294471025798594 0.03868917152935989 0.01729052847259731)
(-1.28131399999811 0.05704616831944272 0.009488888999259664)
(-1.323988183521909 0.01101971306595893 0.01535477598072947)
(-1.364280942844941 0.01402127809684365 0.0265654801027418)
(-1.32779123421911 0.01069664426258385 0.02188975711500146)
(-1.358991230114216 0.01436217033854011 0.0186309777749612)
(-1.18228389132934 0.002083899736284075 0.0009545870419827816)
(-1.184122280060182 0.002832185136593423 0.001919013133573992)
(-1.182475601598454 0.004277039941054363 0.001226629328093475)
(-1.18151450693537 0.00361682106475503 0.001453371970564349)
(-1.181044332459625 0.003559289029377431 0.0008167326903556073)
(-1.183598701769656 0.002820499160487719 0.001337939750762208)
(-1.182791464511688 0.002086190370298591 0.001362120750178398)
(-1.181406764915974 0.001159814100329192 0.0005824827839207497)
(-1.180779255540979 0.001560226984861964 0.0008043483840644047)
(-1.179839602360155 0.0009171281261700446 8.984753092068409e-05)
(-1.181482506555539 0.0004362689851665702 0.0002738817923664243)
(-1.18029472908818 0.001627599392251129 0.0006021095962159911)
(-1.181911649171109 0.001145413090113657 0.0008192746291419038)
(-1.180983249281775 0.0004390520781107065 0.0001893624345040448)
(-1.232396875025123 0.0179252609769661 0.00676042269017641)
(-1.224208197825029 0.01572881304035088 0.00869718945477381)
(-1.229819040506554 0.02787147304781921 0.009847573531719028)
(-1.219154888165819 0.02542882023226821 0.004495615246995001)
(-1.23360461121603 0.01817504677116532 0.009910164148200232)
(-1.228778415462889 0.02773536256761688 0.005676638543845666)
(-1.223178065228449 0.01549042044594438 0.005896186722146418)
(-1.245708154009888 0.004803253399362536 0.008311707028890012)
(-1.261333544464536 0.005475989478491382 0.01359766957575129)
(-1.259501766660723 0.005717574334247815 0.009572260676437698)
(-1.247229699344836 0.004599372159136032 0.01181792404385062)
(-1.2342605989215 0.004012564622389808 0.007287078878882802)
(-1.225774322761781 0.00327660273354439 0.009059040423291106)
(-1.235541459054964 0.003834335140854871 0.01033276255777408)
(-1.224682217817015 0.003424132427993011 0.006399522173160723)
(-1.243404499912917 0.02162715129445663 0.007657112412059248)
(-1.238709287210684 0.03591084613585593 0.01148524370955434)
(-1.25821426776879 0.02580599057391452 0.01294218795408928)
(-1.250688245411453 0.0389117849967937 0.007303754731001645)
(-1.256527878615843 0.02539757427894682 0.00883848604132598)
(-1.244829945435489 0.02199401498217482 0.01128238192866842)
(-1.237412526638727 0.03536332947709582 0.005660133433165251)
(-1.438370796858197 0.1199012537599847 0.02364788619018664)
(-1.382878717192081 0.1659338567796 0.02695253476708178)
(-1.392727700130157 0.08932009203497353 0.02899244023142291)
(-1.34859271921018 0.1325409686370868 0.01082817186990366)
(-1.387033367147022 0.08565801605355648 0.01929557895521321)
(-1.445328305416909 0.1263072142921852 0.0354955214203821)
(-1.380470783440737 0.1613610947058894 0.01763745578469286)
(-1.477622862348044 0.02983304365939218 0.02952358308525195)
(-1.415168981895037 0.01985410032716166 0.03316857481728477)
(-1.407199674066329 0.02005052767040916 0.02303299309922891)
(-1.490623260953178 0.03028545298655264 0.04360121756527861)
(-1.466584018677833 0.1528323750186149 0.0613051930419173)
(-1.361069094493607 0.1540740694208154 0.04162611632865339)
(-1.385980836735482 0.1811135565449311 0.03392689437610434)
(-1.400342605050722 0.09582667394285871 0.03915826059903368)
(-1.388707359171039 0.1914130733787573 0.04291746998611287)
(-1.410242916152394 0.1038436773580134 0.04983399755167479)
(-1.454658869814362 0.1379742175275734 0.04812754127998689)
(-1.57081419055695 0.04510937592368493 0.09657845351266403)
(-1.484477626786349 0.0311762576098146 0.08982020930847529)
(-1.610527181233316 0.0585045296988928 0.1239471858869816)
(-1.460114516334238 0.02666993704678988 0.07155451146372523)
(-1.480569724542639 0.1761604331880339 0.0746127980492215)
(-1.365267631272386 0.1735357585461068 0.0425813675145633)
(-1.389528613341384 0.2379392817745301 0.0556999680239447)
(-1.435880562546441 0.1319778657493331 0.07478725508223456)
(-1.492009513187714 0.2058686722006818 0.08910033390369121)
(-1.391257599231329 0.2183633672366208 0.05021408063393341)
(-1.422267052911143 0.1165627197587256 0.06152414521781956)
(-1.534718543565454 0.03789056446559361 0.07664396801905346)
(-1.426087494952459 0.0211774883626767 0.04437851419449976)
(-1.440770011973831 0.02331079709623747 0.05705055519385169)
(-1.50985295789319 0.03337136836919922 0.05894734832015422)
(-1.187672742765813 0.00466914802934773 0.002154910144675916)
(-1.18593385362905 0.00385681923656021 0.00249309707850373)
(-1.186981125343057 0.007173518800206165 0.00311950439667939)
(-1.1839409656074 0.006394663802372025 0.001478295445599532)
(-1.185386498610127 0.003834116145260623 0.001733540078963322)
(-1.18824849175967 0.004694650718011934 0.003097449724849592)
(-1.186438412593605 0.007207623237263331 0.001951477432625169)
(-1.190510426402389 0.005837962811135981 0.002591583552015145)
(-1.189350869197888 0.009747601245830021 0.003883788569745243)
(-1.194588798514258 0.006874111807439479 0.004408087848549447)
(-1.1924861727669 0.01060643193256065 0.002753417782666248)
(-1.191120937246726 0.005876175407643114 0.003730147387038522)
(-1.188765866317043 0.009643606221753663 0.002218780229188857)
(-1.193936770587613 0.006832578153861491 0.003063801387835222)
(-1.208627201897947 0.01136926888441909 0.004668632250453766)
(-1.216218011128437 0.01314780705137678 0.007678424802804939)
(-1.206488754327801 0.01881737373750314 0.007001331003404039)
(-1.212927181912386 0.02021018967891888 0.004602608596312679)
(-1.215333629346613 0.01301408278077281 0.00527065268383604)
(-1.209438697249058 0.01145688836098419 0.006754997430297813)
(-1.20574171231621 0.01865172200351744 0.003970280811778917)
(-1.199578879972619 0.001727240040981797 0.005291585949472203)
(-1.204605822575969 0.002013319521124437 0.006104280208198152)
(-1.209683310914813 0.002505344662899187 0.004984666661044723)
(-1.21752999549754 0.002765985622810732 0.00796370801913227)
(-1.216577871042439 0.002901000841299988 0.00566022673340852)
(-1.210543309664641 0.002382275016961823 0.006988111502435328)
(-1.20288929824787 0.009517963506233839 0.004101465916537771)
(-1.201755833561112 0.01477191937417042 0.00596442047813231)
(-1.198742642784645 0.00831914505858339 0.005128878024644393)
(-1.195840656710975 0.01357990696100362 0.003043968186464188)
(-1.198041977901756 0.008262043241062672 0.00355968602256782)
(-1.203644154336276 0.009581279848683798 0.005912828983170151)
(-1.201054529259949 0.01478750194535492 0.003668065529638619)
(-1.138862640125671 0.00510343812785775 -3.206306508534403e-05)
(-1.16613096642217 0.2849645171370726 -0.01263556872058547)
(-1.220887607626413 0.1279556083253051 0.01609236555824916)
(-1.352735295678388 0.2871114178205065 0.07421532770416095)
(-1.313075767397318 0.1160039160017866 0.07095789139573401)
(-1.190634022548795 0.03963845106867629 0.009880322177088979)
(-1.205803539165183 0.07126332034077419 0.01434365294416608)