/*--------------------------------*- C++ -*----------------------------------*\
  =========                 |
  \\      /  F ield         | OpenFOAM: The Open Source CFD Toolbox
   \\    /   O peration     | Website:  https://openfoam.org
    \\  /    A nd           | Version:  7
     \\/     M anipulation  |
\*---------------------------------------------------------------------------*/
FoamFile
{
    version     2.0;
    format      ascii;
    class       volScalarField;
    location    "0";
    object      mag(grad(Phi));
}
// * * * * * * * * * * * * * * * * * * * * * * * * * * * * * * * * * * * * * //

dimensions      [0 1 -1 0 0 0 0];

internalField   nonuniform List<scalar> 
12677
(
1.046660948298818
1.138795380195049
1.101742041956467
1.132836124182741
1.136431663735207
1.214743671950419
1.226175991214815
1.227055598504249
1.235104956724945
1.183231525494168
1.172308473382822
1.179917122918076
1.176326266216679
1.18900201153739
1.213682159643385
1.205628294222568
1.185461121314375
1.330546832192722
1.263962653223896
1.265716249850245
1.325868866079599
1.182974483541622
1.179440146587241
1.181988176950683
1.180320494744109
1.220390201151894
1.249812677007259
1.252743874082737
1.21939768297251
1.359296824055583
1.437018256063496
1.355633726998803
1.363805608109771
1.384921144290487
1.18448473693936
1.191889128066454
1.193153388614015
1.183425177937023
1.213847512253787
1.195243146493534
1.196601561198914
1.212757225680101
1.29008344898687
1.269023530172278
1.280257553117629
1.299262360970917
1.180799646994461
1.181472402651797
1.241605423004431
1.260901030621886
1.262649469695679
1.240785191589821
1.804604496693856
1.604692221074052
1.53124392350493
1.773369440023421
1.896017409764245
1.194901672451363
1.189484997267159
1.196663293318329
1.20435125238943
1.314099068254227
1.361644815365529
1.345790025735426
1.311912833604097
1.183900774132565
1.18181659601945
1.236002190347593
1.221004695528165
1.226520407846385
1.235254944238392
1.49265402728568
1.383881950835711
1.388569113953922
1.481453542423851
1.700118152100851
1.653134771403796
1.184663049121637
1.188272238797633
1.2175110213394
1.206829970901818
1.173159526176646
1.139395608869148
1.165185407420173
1.138897164944312
1.139076232168281
1.171001178261472
1.159031704809582
1.089340152297826
1.060128233098166
1.127295994557219
1.070971268996399
1.062753421134295
1.168147594540714
1.106464182621434
1.129843609915202
1.196440547662533
1.101234014458929
1.169017463283828
1.181089328253541
1.177024810715202
1.139510998884849
1.151922422720168
1.191303194250167
1.138944786472994
1.186874713126074
1.174932205046485
1.312583808883784
1.23429472906319
1.300552881039538
1.224210248504061
1.312405271070053
1.238548247181808
1.313926952904639
1.283889766572821
1.253467464816868
1.225107297595246
1.238163167625477
1.235946192886632
1.256786068387679
1.300536981818259
1.311634122054161
1.229715936040423
1.24456833564259
1.353941950720055
1.240631256293584
1.320802405253185
1.320036312448718
1.179640479610818
1.177888749345919
1.173323260223266
1.172568779618684
1.173840459362773
1.179127966897609
1.178008417406944
1.182855652118461
1.18048173046614
1.175922247631036
1.187137488849257
1.176450632048342
1.187898700482876
1.182188407262966
1.217646689292158
1.241472017823656
1.21323790104619
1.202630766352608
1.234730572014114
1.202449357617892
1.214491248936532
1.204794060782323
1.18606584776418
1.192831652351723
1.194094368192413
1.193363724393781
1.19506076324603
1.202954810417636
1.291088498077534
1.267291871120528
1.264081555825278
1.280842287649757
1.27168104777412
1.280864851930021
1.296530417733444
1.315369730871949
1.325551396829435
1.30125116394028
1.355704252870985
1.301232067647922
1.346295171714066
1.30870452140112
1.181093945644734
1.180552173722607
1.179733974238754
1.179585117903529
1.179906819153981
1.181059438312917
1.180641097197857
1.181982406480038
1.182151242198272
1.180605302257476
1.183114548456724
1.180763434629835
1.183287591045288
1.181817845562309
1.242739535950316
1.259367564647246
1.249930245833331
1.237925529694927
1.255831007428799
1.238080372946307
1.239649086343753
1.231774095128717
1.219631297328365
1.22788327375444
1.221876712547795
1.228001738062553
1.222702220747084
1.234054845468789
1.428722406092734
1.586790910121079
1.5233920408446
1.676987144308888
1.585731172133783
1.611248171027557
1.512915186824114
1.426292373608005
1.422784892206601
1.501649687134311
1.441017086319557
1.354993847035805
1.376411621970798
1.390145720231907
1.386879573899703
1.38837895364753
1.462486936457406
1.563327495734729
1.433022303129475
1.566385688262681
1.437841650715114
1.547503174096826
1.43149672248585
1.434582377852731
1.532370939359796
1.190157581827575
1.1933473521372
1.192096020786318
1.188219227181805
1.188415972236307
1.193566394758848
1.189952864433993
1.187334143302502
1.183602674526463
1.18487825326542
1.185893856139052
1.185061219530462
1.186076179571714
1.187141307419031
1.20248784214735
1.197419794147918
1.195471459331552
1.200394500698087
1.197655207447415
1.200636048030443
1.202234122092812
1.208233791900401
1.212973550440981
1.214605548763473
1.205197599467336
1.214962433522013
1.205440834103812
1.207958066671552
1.269186665413296
1.278023972666416
1.278204397202229
1.299482422238878
1.288050292131291
1.288256246675584
1.180878384197627
1.180839915814373
1.180920939059027
1.181512539186007
1.181110826521389
1.181149030418325
1.26104542195451
1.253553634937284
1.253691404056518
1.240904077755232
1.24687049346036
1.24699673718629
1.854585974687272
1.532447025083373
1.595276953183603
1.597189634732926
1.194957699626969
1.192769278419334
1.192823151616999
1.189535442136897
1.191299830994578
1.191351930137791
1.196721374538393
1.199255062604325
1.199315239027336
1.204416418536559
1.201345425214008
1.201408001469213
1.362000513507478
1.342684076607383
1.343022147865421
1.312170644075415
1.32625671845916
1.326544073600441
1.183945160827236
1.183032184500832
1.183075594521783
1.18186206444752
1.182468916478635
1.182512359446557
1.221069094912657
1.226161553167238
1.226213064445517
1.235365573578647
1.230377652286343
1.230464256632068
1.38431404000422
1.410249090376876
1.410715491781737
1.482126443894902
1.442168767540855
1.442773924018772
1.184708250373629
1.185848107181998
1.185894450650348
1.188321284109295
1.186825868105705
1.186873316224009
1.217589546501769
1.213358083476109
1.213431787013126
1.206897762283101
1.210444980791991
1.210515277152484
1.334801512503793
1.27951190277495
1.352722348121862
1.267928400455616
1.183668076898813
1.183923487127523
1.186803118406908
1.180965921627594
1.18518610559911
1.193799220362451
1.194015434116143
1.188447077847127
1.221670199864637
1.264383428630975
1.254800626896252
1.228030623372898
1.215055180530209
1.201681747781084
1.212741869688873
1.19748030917504
1.317275753739242
1.303785277642327
1.353027096686185
1.327681452229582
1.320701645644119
1.300987716760422
1.348541174930264
1.297404236806489
1.278746215174757
1.276436607729905
1.300339510584432
1.2925277946017
1.284611386614876
1.275028846270725
1.263846426946386
1.27290722672101
1.295164488009363
1.28261836526908
1.324123073330844
1.364611597482023
1.328014736866328
1.359194816351591
1.18228611324475
1.184127222058077
1.182483972857896
1.181520936667409
1.181049978123569
1.183602818570954
1.182794088624433
1.18140747781795
1.180780560307662
1.179839962238077
1.181482618847448
1.180296004877204
1.181912488143025
1.180983346076056
1.232545770293229
1.224340127695763
1.230174242173351
1.219428340163318
1.233778294707778
1.229104498758914
1.223290356946979
1.245745142749381
1.261418722498652
1.259551118078265
1.247294167580677
1.234288632469527
1.225812176755056
1.235590613897547
1.224703724663288
1.243616144735704
1.239282936990282
1.258545427465966
1.251314732213757
1.256815605152
1.245075347876562
1.237930677891386
1.443553283543412
1.393059234353995
1.39589006986279
1.355133454675224
1.389809762759153
1.451270944676586
1.38998131881861
1.478218852465967
1.415696855606117
1.407530981940843
1.491568295764716
1.475799696906379
1.370394334640268
1.398175966866956
1.404163641578978
1.402493851432552
1.414938874721174
1.461980017805168
1.574426713040085
1.487519227932198
1.616348813336998
1.462110028165753
1.49287852053876
1.376910867614057
1.410853413910771
1.443871282514189
1.508778700518423
1.409184771938637
1.428361179071625
1.537098240410448
1.426934995644596
1.442087510004945
1.5113716923906
1.187683875654595
1.185942745570424
1.187006900822538
1.183959157710245
1.185393966871351
1.188261802848721
1.186461910460902
1.190527560994658
1.189397153857985
1.194616709320341
1.192536519335184
1.191141272303361
1.188807052068239
1.193960251919783
1.208689691182032
1.216313312280567
1.206655802832625
1.213104275977408
1.21541473446357
1.209511824119425
1.205892502125561
1.199591794535284
1.204622971504479
1.209696175227245
1.217559181829827
1.216594497062479
1.210565823699996
1.202933945606002
1.201861417723275
1.198782481184394
1.195921634497146
1.198075754507138
1.203696810969445
1.201151159169549
1.138874075208835
1.200510668204477
1.227679987776499
1.38485871527865
1.320098443982544
1.191334631084051
1.207992705387353
1.382783543106676
1.401018959182937
1.462614593919393
1.300980830894124
1.24939330018601
1.185441854628267
1.178348020955904
1.379991924658942
1.28451290952609
1.361393397882296
1.308553382947502
1.867718448378147
1.607220533059225
1.49770448148632
1.699732465139607
1.57968949594532
1.83339252536792
1.556826287469718
1.822949557960351
1.803262194894738
1.708156725753434
1.651417552936754
1.0945503123822
1.056127279327561
1.101082823643557
1.123594146967197
1.058792893468937
1.067447025847092
1.146617936464964
1.127684930757702
1.097843563506236
1.185347229116552
1.290678950481675
1.226642744146744
1.275669566497649
1.18141665282862
1.214255169034122
1.238262121232408
1.307289423444912
1.367756978166571
1.50076336522852
1.438804543354279
1.351150117584055
1.524397557926432
1.46056160860998
1.362040410623788
1.562827489980519
1.377139510853784
1.4048756342134
1.517318215538713
1.40260954103432
1.531974611602923
1.505992957481396
1.562315039743674
1.40841607694599
1.780120005907654
1.576703170011852
1.49864400659249
1.340013406130733
1.383145858179114
1.424471515190552
1.79167860955264
1.867004828693817
1.820468269602162
1.85551774042736
1.858526471768377
1.762386619997343
1.764384724874852
1.645280264053117
1.722876386981405
1.588075344749985
1.816139783240645
1.771238341297127
1.820526615960746
1.758590440021554
1.881907837626591
1.843340152688803
1.183831906707551
1.15099330289029
1.13843364762613
1.190875807839103
1.347610109699925
1.304996532145275
1.334334188445488
1.314912159513044
1.296191514027546
1.232880083907715
1.226987368715371
1.270727341765797
1.227516963881077
1.29519312724943
1.277494043265562
1.363776633349138
1.418152793517138
1.343402395967688
1.348344505126827
1.387565088414727
1.269225350523906
1.289535049540831
1.230874654265445
1.243922100514898
1.240041013526056
1.215196490367985
1.203585990873717
1.215021523042276
1.234684147074612
1.211753172256798
1.327368025315541
1.299965959081044
1.317800365800283
1.278272546324353
1.293492999609352
1.26452025917683
1.258416887376513
1.273976584863049
1.261946214389053
1.278732530136389
1.210634819786899
1.185304969787016
1.188293590224909
1.194174368994107
1.190823833136957
1.195455382859889
1.189945975312287
1.207218701733496
1.196096113710007
1.377808615759283
1.359018522117329
1.46602812531629
1.412616278834384
1.444096467265533
1.391743958556111
1.34866052964271
1.343326621492928
1.387008226329987
1.364661328167387
1.327407165663263
1.336406426565571
1.299016826213492
1.30755998976555
1.291616688007042
1.314722256449168
1.325279815085878
1.307799718589378
1.432080060447667
1.461995631646206
1.39332064116591
1.374303824541595
1.368494052887947
1.404293218552509
1.422739752855511
1.374192362003976
1.330410364813279
1.339920981005185
1.359753058639971
1.332725123409722
1.331946112340356
1.366906215489591
1.350063144883899
1.298633956111527
1.324000895870762
1.318554358036996
1.562862344781902
1.45204163990953
1.50335830145503
1.418435274912801
1.264792269891214
1.291289330707048
1.235209269919823
1.287097003702591
1.226030036373647
1.23592654322839
1.260099349347938
1.179044076662348
1.186199266965178
1.191599360158483
1.184180658940213
1.181584505416093
1.17748751742137
1.18936864060086
1.174991535460992
1.182764472411522
1.181095456434269
1.180877507888518
1.173531809580546
1.174832910624365
1.179271135428073
1.196463135056172
1.199289062716371
1.209750275423523
1.206783305540645
1.187247395342146
1.194610791420347
1.19674877625139
1.216199380769807
1.241804911111847
1.223651225606166
1.220128458877515
1.214491122101551
1.237633108212547
1.203744694236689
1.339681516907695
1.306943494560013
1.359101206197918
1.32528728290843
1.367050922987371
1.331284586041993
1.311703004076448
1.300836138877864
1.29195347973804
1.316363716932512
1.309113933767901
1.274603540466238
1.29564185651623
1.28617855035162
1.389191543375693
1.323571680556211
1.348160054420487
1.346226301472326
1.376981036134972
1.338780389458121
1.316566396574045
1.287507955284494
1.277866718311406
1.298706632121874
1.30333270010036
1.271161607651966
1.291019364300221
1.281564653215139
1.184829451481081
1.182182456270334
1.183476304643851
1.184341716486742
1.184512087304794
1.185720744455588
1.183013169352803
1.184435815925065
1.1857026671123
1.185229877838103
1.184465180316597
1.182758549566942
1.18326454163449
1.18400540688866
1.185230224646388
1.1866599133163
1.188111660164018
1.185396036205266
1.185577090453086
1.18680771253707
1.184024527467304
1.181446838687687
1.182144500919644
1.182583561429749
1.183432158031157
1.181768410461851
1.18225614529423
1.18298342237709
1.186674022587794
1.187766690496048
1.189030529327106
1.190005975077698
1.186076379820778
1.188682936049225
1.18760189445257
1.197892872613189
1.195787826092568
1.199606497190885
1.194260621463084
1.196377872185201
1.192343164248474
1.197962639861371
1.19016876482812
1.195490199903591
1.191957076543707
1.192993510980557
1.195049971301256
1.19116303684263
1.19660146790133
1.191186076975404
1.190094282559479
1.19263051566321
1.19119749971264
1.187148583097102
1.189850286339418
1.188734169691792
1.225777511613179
1.231720319160962
1.23543904923725
1.237590655365689
1.223421194875205
1.233605103553503
1.227642117224711
1.249292749787035
1.272336329551755
1.256603765833794
1.252699884691742
1.260604768169026
1.267648727454731
1.245783585439468
1.240923109438955
1.260868007289186
1.247025293303984
1.249554539749885
1.257312660477963
1.263886541761215
1.243235848939631
1.238889312914593
1.243563265528604
1.232798197396322
1.240263087343285
1.225398355979157
1.236064809419114
1.229953910675953
1.217571590091975
1.207684331910702
1.210640358939247
1.212099525870101
1.216531502789965
1.209072397590239
1.219206846201183
1.207438671415722
1.20419973848135
1.209635342353098
1.207663807936012
1.199981537409348
1.202408628350753
1.205649969638091
1.220654556553023
1.223714580812019
1.216101570276608
1.21390176469331
1.218453998554026
1.210672344379863
1.221232936998743
1.202870723934492
1.19972590637178
1.20472407960558
1.206041540301547
1.198633176423135
1.200930397370875
1.20408251575938
1.138919746493656
1.176110035092836
1.171376518898594
1.198883347996818
1.202818207607689
1.213871308349519
1.219323626545606
1.194221059382785
1.20177834919911
1.207497020283435
1.218125038600777
1.247457707078852
1.22852014089354
1.219783293724142
1.254569743657287
1.234884973243456
1.210609463817453
1.181144528300104
1.188996907367065
1.194695089143793
1.18822367891111
1.198793689743143
1.192693278522558
1.183812119518009
1.176972404196521
1.185376597398502
1.183618608221255
1.188822110933868
1.179506296781829
1.18092823658517
1.186943790438883
1.252992213335018
1.278044733350497
1.261333811459611
1.274646445177104
1.285099935661271
1.267142348464003
1.258088147479291
1.304476879376839
1.281640161030693
1.270754779683175
1.282880165716244
1.293711158631325
1.274175601036519
1.263338221300932
1.2424780724999
1.247544928824989
1.236213466220438
1.252395113993331
1.234641233984916
1.246511200287725
1.240347003025334
1.25728693416419
1.251247581913142
1.265348739715817
1.258221077211521
1.238603209932461
1.251609190448782
1.245273873249131
1.245600950795502
1.229331742183716
1.235146076573445
1.222804389356653
1.219244334818094
1.226429335803868
1.209674996107882
1.206320165807587
1.211977239632342
1.214762409731316
1.205952618719167
1.212166538022712
1.208832307929083
1.223428360265815
1.226683590959566
1.218722506749633
1.221856616351602
1.226530707518233
1.217938555762688
1.230252109758683
1.239557267857055
1.225547260512932
1.230400144495294
1.225099146390964
1.221066174129012
1.234479524621578
1.229948919706465
1.218027509889702
1.208534762024783
1.218627555574089
1.21521739968951
1.215240390556707
1.221893553428101
1.211764122207761
1.213252087742727
1.20532392046765
1.208339088687528
1.202228392055507
1.18584323158791
1.187152949065738
1.186664532834368
1.188845583730222
1.186890496107979
1.187437442458114
1.188338514364567
1.186641300254262
1.188141776704108
1.18964199061933
1.189872713538652
1.189965716559548
1.191431266622435
1.188285586315092
1.191865992820203
1.191961600888799
1.195881967996756
1.192343124677526
1.194169650158632
1.193494360955814
1.190166942974887
1.190793473611428
1.188731322700202
1.191419227523804
1.192486098753219
1.193042135012031
1.189315331082407
1.190264111874875
1.199770735842791
1.19758740625216
1.201548260742235
1.199705013668935
1.20186071687267
1.203839369292185
1.197463018287796
1.192826691452016
1.191692018015838
1.194316617149033
1.196295043844727
1.191724493641698
1.194656718073023
1.19356345270742
1.202160549978118
1.204412152817848
1.20962738460406
1.20238605594937
1.206504721540817
1.199689809154145
1.205026734762148
1.198584256169853
1.193728757994434
1.199302350832517
1.198230653529067
1.196866742264922
1.201246306383386
1.195724163090516
1.181707096006563
1.18090867269927
1.189819096344919
1.1929309688122
1.204716404323597
1.19705210486333
1.182090053515317
1.183164733361186
1.188556021294235
1.184957980753438
1.207284912926451
1.217809255364936
1.279097085469322
1.269807855360905
1.269961137378853
1.278926852519428
1.289288164279038
1.300498146947901
1.300708423862124
1.289096626624143
1.181056749051378
1.180918201034447
1.181015238346683
1.180958373181542
1.181282985876198
1.181566424791454
1.181606962830429
1.181242998858904
1.254291616927193
1.261591958186471
1.261729444646546
1.254163841738358
1.24753872844984
1.24129604247035
1.241401309679065
1.24742230187317
1.623180761115565
1.545562287717082
1.546804910335716
1.620658224701128
1.193128973256259
1.194960160157397
1.195015351927633
1.193075494709777
1.191398278169916
1.189766503396669
1.189816530216747
1.191346567480847
1.199353076144501
1.197030288357025
1.19708750613397
1.199293694109501
1.201811296813166
1.204409772692146
1.204473416771698
1.201749697898176
1.345156514007073
1.364365642112847
1.364705682160454
1.344845991882591
1.328296310431505
1.31337627605878
1.313617012609045
1.328025259808341
1.183256538904499
1.183984225278373
1.184028276461351
1.183213088702174
1.182593490766038
1.181995956142561
1.18203872246452
1.182550454101545
1.226117732982643
1.221651910221903
1.221711830158471
1.226067405381438
1.230782485603077
1.235736853358919
1.23582688052987
1.230714951888359
1.41529401280965
1.387352320622357
1.38774730471663
1.414850257830186
1.449013624266182
1.490635866213723
1.491339609943528
1.448463922968764
1.185956407881362
1.184882295936221
1.184927288583703
1.185910266437741
1.187108821712367
1.188339670265364
1.188388211146041
1.187061474492925
1.213966600448389
1.217594872887196
1.217664038318673
1.21389654745526
1.21054608103492
1.207315393395712
1.207381372700187
1.210477793935576
1.181890066723811
1.181973969472846
1.182413348581516
1.181456199115325
1.182774795218544
1.184662726649223
1.184115631790588
1.183306204605939
1.191160417032071
1.195346161724082
1.1917983041705
1.194663439504714
1.18826906429499
1.18650687020789
1.185936261724134
1.188869749559895
1.203825647299921
1.198855962822338
1.613734283831997
1.482696145962805
1.316245770917985
1.554045532250508
1.626137482077525
1.237796757533944
2.466079999934415
2.065477638012243
2.341457048923998
2.299101900157015
1.637713570812566
2.274390913662288
1.892023554192949
2.044125688309218
1.728685050889365
2.155339291194712
1.732851216064511
2.334829496311872
2.017226252459443
2.046832508300477
2.209868813270569
2.156740938991186
1.611813693520019
2.004377597293889
2.23450967025868
2.064198454516057
2.225619829165956
2.272852875223986
1.220085672452631
1.180572927869251
1.005548277496864
1.182457781790281
1.060600210693183
0.9953829201836033
0.9129274966804152
1.14151121953598
1.173209661341067
1.015179461091024
1.017429744420826
1.214257223380809
1.056415019164735
0.9802552935945961
0.9292120050654307
0.9428124584442248
2.039708801764492
2.191139402276819
1.217357045056122
1.264554738017633
1.28241201487727
1.290157967182313
1.270804207470952
1.207327159536062
1.213150031195598
1.216035933389236
1.20991840709144
1.187240020928784
1.187738277984979
1.189463256517857
1.188945330620172
1.198384286550159
1.202443814077243
1.200556251809657
1.204800935844355
1.31190234200001
1.288025738904495
1.299782756756438
1.278479331355778
1.250083373806794
1.238209731242694
1.255246269841551
1.242564285639666
1.254182186982239
1.269228470994728
1.261522204332258
1.247810469463442
1.220765876430256
1.228262401337382
1.248393425630505
1.237353094117999
1.228336046550165
1.223345811387732
1.232072946342148
1.219443617268003
1.21654795207946
1.223480166983989
1.212963090491269
1.241914756485189
1.227217441550801
1.236540559089365
1.231836595203574
1.214568943271865
1.188744421702637
1.190275879757717
1.190509339553304
1.192102374283446
1.191456448856112
1.193185059776389
1.193754887897984
1.190914967351361
1.192550421470302
1.196663056088463
1.194906632958679
1.194217465644553
1.195046980375148
1.192363948193159
1.197072725085235
1.194276328006274
1.203088874240579
1.210789763932305
1.20755910695084
1.206042689929177
1.199428158088503
1.199065685112303
1.202165477845778
1.19649480066424
1.297116511017046
1.323974909531797
1.315777456403284
1.290793041648783
1.185776454639293
1.186258329914577
1.184999941522566
1.184531711485119
1.196536141414202
1.20044436596134
1.194975012553575
1.198759793832558
1.259473742471462
1.27617778816591
1.255327833662425
1.271127991086586
1.20513748678369
1.210722048808001
1.208690026771904
1.20329825031918
1.281777055117622
1.304202818757509
1.30929817745963
1.285756498597836
1.410404702018733
1.394215139234546
1.35988446607538
1.348729350627295
1.371877002025748
1.333159455102784
1.381610838191314
1.339988245889392
1.182641447169023
1.183088790534138
1.183948399450095
1.183491531017459
1.187231366165653
1.188711852086732
1.185945596137794
1.187384054773007
1.185371773169975
1.183994537252327
1.184871787467727
1.186276128619409
1.196230861558968
1.19262358813284
1.193678377552717
1.197363962575492
1.193318722154669
1.190729052220881
1.191855851242908
1.189342872358742
1.187245405488879
1.189646692918336
1.190638464279909
1.188187604107829
1.263870632671562
1.24932891664709
1.251986622433372
1.267080252926376
1.245848706666172
1.234610826102293
1.242371846109331
1.231639440844261
1.227291161360546
1.237310727596657
1.239556086107082
1.229222609913912
1.225226608136645
1.215082646036864
1.222646599618307
1.200548851726088
1.205667761647087
1.207017193962927
1.201778857177841
1.218851824078641
1.211718985286333
1.213217670883993
1.220539448141042
1.199694668837646
1.201788125914351
1.197651648035521
1.204453617444344
1.209039052020475
1.205486714295488
1.296535298058102
1.570271945569634
1.490881405424741
1.267471944561485
1.22580357243107
1.219197365789037
1.271341632442452
1.223618567205952
1.15952595841072
1.196965678619724
1.189950766283662
1.479216555588435
1.380178674823808
1.376253648602421
1.453634605721825
1.374075349903934
1.356886280531083
1.420592262169717
1.309021033254165
1.274506815906197
1.720955639247778
1.642394115053792
1.746631371715049
1.71773549423577
1.766059496900043
1.650997658285828
1.53511106845335
1.652835859170601
1.196796178806838
1.193224945815776
1.494218856157107
1.389959396801381
1.416255818021043
1.3292646586612
1.368899989365174
1.352730673069412
1.220152126096365
1.262053396637695
1.242636602527484
1.21294274057359
1.347389664137143
1.315206814442648
1.308726105368798
1.333724105133054
1.306475030568537
1.288053187773824
1.284669174149112
1.256970831907984
1.272501817073814
1.26724394829919
1.290708100280169
1.27158560215309
1.198722072950448
1.226235298958449
1.197548198748075
1.204890339174657
1.213499911669869
1.193246468979597
1.182617237259525
1.184083705982575
1.191210425794306
1.191537902498958
1.204065226356653
1.197444962881675
1.187045321234441
1.198619253299614
1.194798974308434
1.196806092772205
1.193873819086741
1.195025047298915
1.19561310716879
1.245936508394398
1.252957113360672
1.241413341164799
1.234919637472143
1.231847706291029
1.219567736961814
1.227387529331538
1.224020350223956
1.212218873985538
1.214378261924571
1.217520045912397
1.208927550260255
1.207887191298747
1.201849363726028
1.201109812639228
1.204313162721318
1.205441474844577
1.106523587840628
2.041682698210897
1.331864536095825
1.191344315632165
1.745562586243219
2.020855548493103
1.622639197324007
2.099189501390337
2.13293194627735
2.489752583762897
1.957626030412396
1.674978424724514
1.277315622689714
1.173407485553974
1.064184919176695
1.090479748984154
1.010529594013997
1.038011310430858
1.195792356530261
1.196396387401768
1.199482412915658
1.197617873498926
1.233991337140714
1.225775389346373
1.256327270020555
1.244029406298884
1.213509914882268
1.219024147182545
1.20948113952741
1.202036875719765
1.205339250564442
0.9595459817680786
1.061270174790326
1.04873236684471
1.063962255938636
1.041567508576752
1.038960208782041
1.0406529780556
1.038387371376345
1.148616777759915
1.138926488258174
1.148133616100799
1.138824664988942
1.138946818173446
1.14850118027712
1.14825611382278
1.129038783278361
1.12866600925849
1.099404058920324
1.129363932345298
1.128846936885118
1.1026689028224
1.100515365208921
1.145022689726614
1.126991266673439
1.132361819292656
1.150514049997953
1.126367304358712
1.15004898901265
1.145716048351779
1.152814463812462
1.138399662925906
1.136092020036721
1.152597218821682
1.138171198153107
1.15231655938492
1.152957244052626
1.514767718467594
1.428268175667479
1.604519421985423
1.440374571797844
1.598439298263629
1.523069467823822
1.425006070515468
1.162022528209051
1.160256981510492
1.170231017970023
1.172101100647919
1.169165365732092
1.159647818510738
1.161482552195354
1.149309871562424
1.139153971998705
1.139365283280994
1.150190896911763
1.139155049250161
1.150261619232939
1.149210631793535
1.166133455896115
1.16554136279984
1.16650039652034
1.157937373944109
1.157057850670245
1.157704740496361
1.157291884840136
1.138970778677284
1.149116481507744
1.148797402257896
1.148830462749619
1.138867023871829
1.138970506119042
1.148485221928953
1.139119936980663
1.150511781724227
1.149717443508016
1.149488799548038
1.139284548127385
1.139138980044331
1.150380672886624
1.171375034378674
1.168070099204733
1.168441288360649
1.159218835101963
1.160886957412957
1.161093047262939
1.158994719031872
1.168278520614581
1.158408036215692
1.167305611632225
1.166249660470146
1.167217062513019
1.15838612129908
1.157747521623021
1.065860004139968
1.115315538294998
1.084288067911724
1.118041091115546
1.093278816409737
1.086064447307884
1.067682508038872
1.052666423232079
1.060459266507974
1.076771370812258
1.052988642044301
1.060622832947445
1.078299235100856
1.061859293367583
1.097701387562271
1.120189959361132
1.088789825797514
1.122372715248705
1.128230158070687
1.090441564286923
1.0989308518264
1.07323352580739
1.093742109480563
1.09131348608478
1.074192265784558
1.071946724139829
1.094712428831467
1.092418720240766
1.069685912554122
1.089582955745326
1.080946751610915
1.063255267000284
1.070996373408691
1.082408538073731
1.090779105552931
1.137868576653818
1.154675408135552
1.187183227980897
1.174964909049484
1.1915682370946
1.158407758351604
1.142744969320327
1.136156395536431
1.118312112752491
1.105588632021022
1.123799617117508
1.122639220593456
1.11754360070868
1.137098886056599
1.147468652367326
1.123122827385641
1.141290258428494
1.143576688958521
1.131380879598526
1.12509023047502
1.149064878721219
1.19634085178812
1.198874439513491
1.198372111376091
1.168536532820303
1.171603495790595
1.17123831134719
1.169226087570731
1.116755697302119
1.113631687260869
1.131223438789081
1.134216274401547
1.103835980855169
1.120287456352054
1.115987131426367
1.195368069276504
1.164574870032284
1.194993996009101
1.196068739596924
1.197193828320207
1.167046814038469
1.170429707087473
1.179234700750776
1.195236088628076
1.194135143566789
1.160745385320056
1.147443025649139
1.145923318295929
1.161842319544978
1.164202203430042
1.181700500657897
1.166560112878316
1.17600540589691
1.18078919230948
1.166346398269651
1.163783778901651
1.15230752438408
1.139283564819891
1.139434284166795
1.151311197889414
1.15133651398977
1.139141941000099
1.152351085508339
1.134247388633751
1.136894180358349
1.15069388133095
1.152492824783376
1.135381329592942
1.137685764018104
1.151710066939357
1.191435886782642
1.185445814382803
1.185688327265149
1.168806372262287
1.170965308172221
1.170828638117407
1.168794665585619
1.15134049425268
1.151943928173655
1.138313886787005
1.152190552885972
1.139258345847696
1.151361255092089
1.13883336042802
1.168679975854776
1.169864607718151
1.191873494707208
1.191682910949103
1.18620318054671
1.168798482964577
1.170503086536343
1.175296359062868
1.17982591407934
1.180141391082116
1.166152712278584
1.163294574772482
1.16346613251636
1.166043475814401
1.138904575845949
1.149431919153458
1.149152854126737
1.149710218623564
1.138737360012491
1.138708936134038