/*--------------------------------*- C++ -*----------------------------------*\
  =========                 |
  \\      /  F ield         | OpenFOAM: The Open Source CFD Toolbox
   \\    /   O peration     | Website:  https://openfoam.org
    \\  /    A nd           | Version:  7
     \\/     M anipulation  |
\*---------------------------------------------------------------------------*/
FoamFile
{
    version     2.0;
    format      ascii;
    class       volScalarField;
    location    "0";
    object      p;
}
// * * * * * * * * * * * * * * * * * * * * * * * * * * * * * * * * * * * * * //

dimensions      [0 2 -2 0 0 0 0];

internalField   nonuniform List<scalar> 
12677
(
-0.05073601467227181
-0.07804519149072084
-0.08026414689802019
-0.1023465250712887
-0.09829577396239875
-0.193841708440625
-0.1125833393210658
-0.122136241601688
-0.201223611817414
-0.07261398036165001
-0.06522926037600237
-0.06903555821494331
-0.06913977472428023
-0.07610774833432249
-0.09549402525479729
-0.0900040031701544
-0.07214938810835601
-0.1265907744309636
-0.08431606005539352
-0.0865270896872098
-0.1198317685753763
-0.06183288863184443
-0.06063448031618489
-0.0611760042422137
-0.06141894771384201
-0.07007365907826921
-0.07875486941973242
-0.08030064109100662
-0.06910721587220661
-0.1561880167749484
-0.3472908819747486
-0.1458344372680014
-0.1638990621491675
-0.1970971639643076
-0.06212138286257544
-0.06286433141836746
-0.06354681987097764
-0.06145346357436157
-0.06804805028021137
-0.06362331662173348
-0.06433507674422746
-0.06733078496507029
-0.07824704487607417
-0.07456571734991842
-0.0760306217394027
-0.08173426210692382
-0.05972751680698263
-0.05985863314367144
-0.06844957465647031
-0.07281048324805738
-0.0724059013752245
-0.06875617176681298
-0.4946795975978125
-0.2400512693342095
-0.1825338858710452
-0.557286627050767
-0.5912370981212067
-0.06143673756934228
-0.06080447332936179
-0.06170875121416332
-0.06274346610008749
-0.08387925302256725
-0.09985186609770239
-0.09214763569736746
-0.08504680988214126
-0.06014844840639988
-0.05991779142520984
-0.06747599626408217
-0.06542581354172784
-0.06598371289275219
-0.06772164867418998
-0.1417104375099483
-0.107488136001556
-0.1046881404113228
-0.1511041195682084
-0.3826990165387038
-0.3279938623540252
-0.06024759861530051
-0.06063530380344555
-0.06476571544640167
-0.0631967008728785
-0.0772022979620148
-0.08251813386251956
-0.06881787896510219
-0.08069396365315121
-0.08288148363152636
-0.07352978474755124
-0.07647370258481744
-0.08127943386728115
-0.05886864159589227
-0.08745117442045718
-0.06902324860420585
-0.06198686752836508
-0.1539952420108019
-0.09753636192882387
-0.1024418941739502
-0.116143705662249
-0.09247695768658597
-0.1170662576973284
-0.1628832836750446
-0.08127364756863259
-0.08555906474930906
-0.0976894378393197
-0.1015303284043217
-0.08801305161903106
-0.09568107750617291
-0.07727838465576896
-0.1926732053580092
-0.1773201280961594
-0.2585752560024348
-0.1980327801261501
-0.2042565911415391
-0.1743557212369015
-0.2566523717766547
-0.1329748273811396
-0.09171240996431111
-0.1143015207182301
-0.1375899806956536
-0.1395988142294662
-0.1031248892152507
-0.1328290129826316
-0.1832658132910245
-0.1996826683951436
-0.1702508867954045
-0.2915598118006039
-0.1715127176916722
-0.2518669044464028
-0.1590399471783246
-0.06315143256893184
-0.06162914644533804
-0.06583877379017794
-0.06578465487442235
-0.06636266753564532
-0.06271394762046119
-0.06274197014049264
-0.06396392048452539
-0.06959384312175772
-0.06704726455168196
-0.06488789665888242
-0.06757249117470986
-0.0653308639175021
-0.06353004403796247
-0.0767206183580364
-0.08475755595538903
-0.09676105210356867
-0.08424448528912169
-0.08634705914893485
-0.08519038440839834
-0.07225502110073855
-0.07102419238350151
-0.07277075068411849
-0.07692813712113693
-0.06704881347007549
-0.07766675570301719
-0.06752507465213579
-0.07035281494283684
-0.08419725176780053
-0.07613825166851002
-0.08472120437999398
-0.09202134011683738
-0.07839862712169264
-0.09254892272966239
-0.08424594207891772
-0.09261794927210162
-0.1209328345067168
-0.1031467967221884
-0.1054942189005576
-0.1039118560969637
-0.1055758461933988
-0.08806915973115387
-0.0601981950655271
-0.0598693418522156
-0.06073791631132493
-0.06077933540187707
-0.06085822143295042
-0.06009995507544783
-0.06011843270301814
-0.06033977102671056
-0.06127424201301179
-0.06095616174643807
-0.06040941210360903
-0.06105738546104122
-0.06051091086389462
-0.06025335015994577
-0.07105216773128935
-0.07417537766442983
-0.07904579750325885
-0.07463053181591722
-0.07419056897697628
-0.07486626349280624
-0.06973548919536214
-0.0686174567337122
-0.06926813377762618
-0.07143205825985387
-0.06667348734958285
-0.07164911412361891
-0.0668132060888226
-0.06853233359963921
-0.3299094764674613
-0.4167927934992119
-0.1731243278407767
-0.3359958779473998
-0.2047820796989359
-0.2380792334959905
-0.2437835970289344
-0.2500405255405974
-0.2529745012887697
-0.2696548288628723
-0.167268300193979
-0.1475019491480818
-0.1147114885248001
-0.187048201109726
-0.127304390429421
-0.1896811097769696
-0.1672300316846267
-0.3878642259979695
-0.327235267297577
-0.409875635189611
-0.3165425039689837
-0.3381426877944921
-0.2843352828091367
-0.2998209873977677
-0.3099005011358922
-0.06139072554102889
-0.06175014524375051
-0.06296749627558534
-0.06229445231107374
-0.0623953280122346
-0.06185628322306079
-0.06128518685856003
-0.06101657769806023
-0.06155427665564195
-0.06062522672662285
-0.06180754975199895
-0.06073037429448027
-0.06190870720625512
-0.06091091523659999
-0.06320793030734231
-0.06234805135812634
-0.06373107630246168
-0.06451943322654688
-0.06245370456031694
-0.06463180446300781
-0.06311169792084959
-0.06420699407858882
-0.06743357593143649
-0.06536008964650139
-0.06581862361666198
-0.06540209726038938
-0.06592106424585086
-0.06414650318599682
-0.07459778659827628
-0.07659514126616929
-0.0766308575886105
-0.0817844780603533
-0.07896040100964385
-0.07900556260312179
-0.05974530176240522
-0.05975884759111965
-0.05977593544707687
-0.05988256859435818
-0.05980359395671945
-0.05982959087404869
-0.07283707737362415
-0.07128984124631282
-0.07131803258917031
-0.06878679190471403
-0.06994898955933841
-0.06997651845340704
-0.5972051336600263
-0.1826774452299838
-0.2360694688076792
-0.236027008801403
-0.06146058089093828
-0.06121031565807421
-0.06123434237070136
-0.06082861323711776
-0.06099884150019522
-0.06102298677889508
-0.06173226014277607
-0.06202032625179997
-0.06204338601070125
-0.06276417393047752
-0.06236612503073975
-0.06238821866312696
-0.1000579026987849
-0.09386493387654583
-0.09401940566462591
-0.0851212579247948
-0.08902182796178412
-0.08912245785863288
-0.06017247212156503
-0.06007033667121076
-0.06009410399185215
-0.05994212159597168
-0.05999292653172964
-0.06001685441238076
-0.06544295396220666
-0.06616943952597888
-0.06617967412507343
-0.06775463825739225
-0.06688656314106116
-0.06691277884633431
-0.1078034757290344
-0.1174781693135974
-0.1178746558170916
-0.1514753000298243
-0.1311805631043145
-0.1316704911054699
-0.060271838708689
-0.06036709053657478
-0.06039150915164217
-0.06065957812600933
-0.06049705905014277
-0.06052144279031658
-0.06478911894905466
-0.06422092606949444
-0.06424149533601829
-0.06321551055070856
-0.06369203517488149
-0.06371067221035358
-0.1313817979628691
-0.09437156269522513
-0.1533258146456042
-0.0879569664562842
-0.06232015272986648
-0.0642804770684148
-0.06465567825359216
-0.06192166154877665
-0.06260790969998967
-0.0657909037859645
-0.06404297001082648
-0.0649384727853845
-0.07072454734555925
-0.08626077689422991
-0.08138246685408837
-0.07369319207205623
-0.06862456745207353
-0.06723436934205998
-0.06963891544583836
-0.06484367663321138
-0.09368253162450484
-0.1075471841835224
-0.1108627895793793
-0.1229247273296592
-0.09548811049695716
-0.105347557723445
-0.1074913060270564
-0.0801503006506548
-0.07606842224455708
-0.07548431078078839
-0.08097877665781354
-0.08483518950117458
-0.09490034908642175
-0.07959141034948654
-0.08551691966125399
-0.07886052093793446
-0.08591094186691489
-0.09346552097139141
-0.08675367771210425
-0.09903979176361605
-0.08810585390679593
-0.09652871163170354
-0.06056130180956495
-0.06107242773764769
-0.06148735912862587
-0.06163121501222425
-0.06127967012959162
-0.06072930054659579
-0.06090987806254305
-0.06043739697504217
-0.06148368224822604
-0.06104353488190922
-0.06074328936881475
-0.0611153027842322
-0.06079740029734815
-0.0603765649824921
-0.06891135849044283
-0.06743831625764586
-0.07253530073780472
-0.0696280768499984
-0.06932877200013693
-0.07201488673923574
-0.06706824847077598
-0.06943476910883972
-0.07250240837000883
-0.0720355132882621
-0.06984445873044236
-0.06742661570345132
-0.06621314136362882
-0.06779904034466584
-0.06587412605819533
-0.07135716540040073
-0.07597766369074635
-0.07508905871846114
-0.07955064982542073
-0.07453395475644668
-0.07182711054575008
-0.07535795010874781
-0.1742050999049235
-0.2039460084428346
-0.137571808365878
-0.150285588332154
-0.1309639120421168
-0.1868147735068893
-0.1945202674595844
-0.1405501077821648
-0.1175285502372019
-0.1122483805182481
-0.1531032425044705
-0.2263578797707874
-0.1736451792135715
-0.2161392653364556
-0.1472460840540703
-0.230726382181167
-0.1579452277831956
-0.2067099730492603
-0.2320675085510231
-0.1569559525737887
-0.2733048584656318
-0.1433677392860785
-0.2526885008585026
-0.184027405467879
-0.2615578436730517
-0.1863753746336223
-0.2772390559755198
-0.2458138664189396
-0.1707821590332658
-0.1975881988303998
-0.125765385165307
-0.1339933834311949
-0.1776066959882618
-0.06123805700355676
-0.06129379210402712
-0.0624759009336776
-0.06177396724774395
-0.06095140447841568
-0.06157966674432579
-0.0621282143422471
-0.06161243039056223
-0.06296410966290329
-0.06242341424829772
-0.06319241003829083
-0.06195370347219888
-0.06261506104558651
-0.06208064775976389
-0.06441548057100785
-0.06593574335871583
-0.06654406104228133
-0.06766953233112957
-0.06560186908580763
-0.06474943392676329
-0.06617069834920883
-0.06243825631782064
-0.06309816059079984
-0.06360230705860551
-0.06494772435639294
-0.06462627995181094
-0.06392763731679758
-0.06343825660184864
-0.06527390536043616
-0.06302811549922673
-0.06396981946516966
-0.06268266618679388
-0.06378312926707426
-0.06489642042125279
-0.08247496806306012
-0.1846114491417825
-0.1282827271072946
-0.2438990217727821
-0.126704461753186
-0.07901120878246727
-0.09413022116218382
-0.2873134730041129
-0.2747687903686473
-0.2050459208123726
-0.1089761471771676
-0.0844434207846656
-0.07523850035032673
-0.07153121216845176
-0.2221072907829072
-0.09777384598385302
-0.1637148676964415
-0.1161109477858273
-0.561527638980916
-0.2739426335608801
-0.1577729033071915
-0.4346619999061855
-0.4558273473648705
-0.5805831176677659
-0.3347265024819444
-0.5350637027376628
-0.4743843547283769
-0.5286874724567799
-0.3115132384228884
-0.08501957277691082
-0.0565885915632625
-0.08092097044895201
-0.09188606957864388
-0.0600329749118873
-0.06850920467877986
-0.1355864987337146
-0.1022621327009515
-0.08911394086449212
-0.1416143494291647
-0.225468848827016
-0.1788944812556236
-0.2493337342964629
-0.1687730951443841
-0.1773970596398827
-0.2229308528859465
-0.2158663035512168
-0.1939018361801478
-0.2735122020588498
-0.1881667090009098
-0.2953534738915892
-0.3695940992338486
-0.3755365115834109
-0.20737327200598
-0.3780476566025758
-0.3077871417107048
-0.2511351102719365
-0.3347587799573333
-0.3032022039173021
-0.4021329202602299
-0.2786550885191419
-0.428051613974021
-0.3302086583752994
-0.4451443067824464
-0.2121333840998876
-0.4175439487786118
-0.2972343428621968
-0.3222528090208553
-0.3714262377257784
-0.5721399325615992
-0.5565102629943974
-0.5775109864967404
-0.5296091453059707
-0.5670635892578805
-0.520230990221589
-0.5261708278456217
-0.5346432116949624
-0.5046147143446953
-0.4313610467495061
-0.5204161849888438
-0.4334582511403234
-0.4904192873890334
-0.52917978630426
-0.5410585335333155
-0.529875023537061
-0.09444499076090387
-0.09943529480899341
-0.08960408450739182
-0.1154618578037552
-0.09258362844574909
-0.0822129158498585
-0.0892857959556925
-0.08446327884508323
-0.1788619325177047
-0.1541105164843594
-0.1359912414057388
-0.1221606871561887
-0.1602933761667923
-0.1614858112849455
-0.1349716173391135
-0.09693728401315965
-0.1147307494765911
-0.1540995103158025
-0.1114713032512773
-0.1384304489840396
-0.08880534459460618
-0.101689117319838
-0.0751662085613066
-0.08132955830739597
-0.08079576306665434
-0.07517357455455705
-0.06837953061228941
-0.07087841777360029
-0.07811664425420041
-0.07303170213464728
-0.08792636387491454
-0.08255246067432369
-0.09689206254693751
-0.09736866601838304
-0.08828858096755508
-0.08942241254107951
-0.07919902772419952
-0.08275110065726007
-0.07644917665169253
-0.07891909186535115
-0.07413724700297109
-0.06539131298313754
-0.06576148271895721
-0.0702574784219176
-0.06990739805919564
-0.06690317579510752
-0.06604417590929468
-0.0720701510155671
-0.07053859327322809
-0.1975710778263278
-0.172796971535342
-0.22877760292293
-0.160484953968467
-0.1910432721175787
-0.1393318763727955
-0.1542519406316969
-0.09145708591568481
-0.1042442702202433
-0.09729998036487365
-0.08744645514030042
-0.1035660909144603
-0.08795888175802315
-0.1108397249757875
-0.1021643075228661
-0.1175730063068141
-0.09815363139036769
-0.09133396139252155
-0.1225857217433422
-0.1360656707654638
-0.1067174281442303
-0.1008628541724002
-0.1792792017618762
-0.1471732957973484
-0.1647468362370025
-0.1250877668523679
-0.1311372762925101
-0.1413640219616717
-0.1155412182660986
-0.1389099300304261
-0.1025292502947224
-0.1227781294830854
-0.1113689698325864
-0.1080084786905196
-0.1263011812617983
-0.09599506598608891
-0.2140225833780054
-0.1322888472708311
-0.1623221666037412
-0.1162625390739149
-0.1133664478816429
-0.1490071682535239
-0.1482751903759407
-0.1398046640372257
-0.1175174557036193
-0.1433305798273868
-0.1073375539282178
-0.07042338761289341
-0.06661216352030125
-0.06807226656973683
-0.06497911444722981
-0.07076528088724407
-0.06867877452619078
-0.06638048575274602
-0.06854297231791143
-0.06577760917145578
-0.065392894976676
-0.06416338162880536
-0.06686607721946823
-0.06744484095322469
-0.06377908984027433
-0.0815598254891059
-0.07049424967174531
-0.0744917719129662
-0.07236834903310312
-0.07406669919229976
-0.0791847583263622
-0.06866492982850941
-0.1029450871611525
-0.09283019719512758
-0.08120969509371635
-0.07848567209958698
-0.09923097292065564
-0.0889339476228852
-0.08708413086838843
-0.1374999934924175
-0.1105079802462083
-0.1156013415805321
-0.09801586025600353
-0.1211319763152186
-0.1010332610977918
-0.1141547589080359
-0.1060224291523472
-0.08544091290593807
-0.09438157330222155
-0.09153496566381243
-0.09179176453067062
-0.1022668122315269
-0.08350116219576267
-0.1361231954578363
-0.1241305771974049
-0.1092952367052236
-0.1443032165615169
-0.1276196733687125
-0.1046189350727731
-0.1184954478256727
-0.09688528636102206
-0.08064093631169106
-0.08743895787446372
-0.08929273157571617
-0.08963114487940646
-0.09929279529304556
-0.08192493592667562
-0.06155218068182026
-0.06212403213079408
-0.06139511445640185
-0.06201793989008825
-0.06294659363384765
-0.06216982689269505
-0.0627550606310416
-0.06434052486901953
-0.06361153750935528
-0.06356547616879329
-0.06268809690876458
-0.06334331521804744
-0.06340474067441973
-0.06263997348337821
-0.06447043178579429
-0.06370457074483903
-0.06384570555963351
-0.06278523802745159
-0.06372570961382323
-0.06293213373316173
-0.06353696137650018
-0.06198507461449641
-0.0612378990091494
-0.06128946694757387
-0.06191693698083475
-0.06255817140687589
-0.0626205531828109
-0.06186709951357548
-0.06177077455330918
-0.06296280102009381
-0.06205482280441112
-0.06266483664876782
-0.06323229702238459
-0.06358627384321641
-0.0623842572427336
-0.06639423245728013
-0.06467983456127134
-0.06514229992484498
-0.06378514237026443
-0.06546227198729822
-0.0648632400637605
-0.06425214195821581
-0.06345454272599267
-0.06289856320757131
-0.06242820091085883
-0.06303595006642757
-0.06467273532693919
-0.06408014652386977
-0.06350515296086162
-0.06529026579882954
-0.06404884157577428
-0.06431794307156233
-0.0634174952179489
-0.06401071332950298
-0.06436459951478554
-0.0631416326048667
-0.06797151079352828
-0.07327578863585231
-0.06991699478863193
-0.0706524812197693
-0.07150997441438355
-0.07415993028436754
-0.06864725910339038
-0.08081042847930607
-0.07958192007846587
-0.0755781459363733
-0.07435645649072881
-0.08431553443003729
-0.07810627912016899
-0.07925695730548363
-0.07686198348685629
-0.07589133920746031
-0.07249728158351822
-0.07332852949224736
-0.0826599639040628
-0.07688269790272165
-0.07789791196417886
-0.07661925341432677
-0.07263484490294871
-0.07047130361501054
-0.07156098494517041
-0.07252962076580137
-0.07530528095576804
-0.06948399617431646
-0.06643129439092484
-0.06708793160889026
-0.06523144363867803
-0.06585000681424887
-0.06934130011391224
-0.06776557006065721
-0.06706877052233018
-0.06824150806431123
-0.06575051437032427
-0.0665188196679222
-0.06562546574535931
-0.06628920776293705
-0.06486113786491306
-0.06727580141716059
-0.07132778421270707
-0.06879462028109568
-0.06752338586400745
-0.0666159826650882
-0.07026340021235881
-0.06863386495704493
-0.06785947569701738
-0.06579599054327351
-0.06350555107773259
-0.06426236741805129
-0.06487272360934696
-0.06548318771012999
-0.06411308828789655
-0.06644906444592504
-0.08462728087375561
-0.08328199833855589
-0.0784727559006649
-0.08493715919562368
-0.07312439749768193
-0.07756587536653863
-0.08189491631969854
-0.08296154327106346
-0.08953629009081233
-0.07677177844899895
-0.1081053730870473
-0.09858301956916232
-0.08519106580198849
-0.1149164359730531
-0.1069325698270084
-0.09087680791746666
-0.09970228413647106
-0.07289332997834448
-0.06894120106288797
-0.07049338786756348
-0.07879289208442801
-0.07381098546900525
-0.07210859751676092
-0.07622237923552498
-0.07090228354384147
-0.06807106543793949
-0.06767592223303055
-0.07117595991896018
-0.0740638551211255
-0.07474246906165766
-0.07075933476979149
-0.08284104117588846
-0.08145018056531354
-0.07709150177288442
-0.09195368931957976
-0.08382437459090805
-0.07893406253104293
-0.08521493732754258
-0.09118655373026677
-0.09612015403494781
-0.09220598567853849
-0.08428534268721197
-0.08696955289225194
-0.08128417122945013
-0.08834083755092223
-0.07829703127143907
-0.0739401716359617
-0.07165748731853884
-0.07548754190973408
-0.07682620113896574
-0.08022702409524772
-0.07304126515408749
-0.08562208940513456
-0.07669581282414041
-0.07972864737487294
-0.07739462455778832
-0.0789261540722006
-0.08269642019203281
-0.07470955207373189
-0.07674794012981659
-0.07836343578323296
-0.07507114411428277
-0.07645127036104278
-0.0730109514083765
-0.07385783556425379
-0.06941771930036139
-0.0668024308483719
-0.0675767235032471
-0.06880193875044793
-0.06968700101797762
-0.07075709171304616
-0.06802196926044932
-0.07265001726345918
-0.06990946949382393
-0.06860091843191678
-0.06984816542878375
-0.074146543915469
-0.07227916450413738
-0.07120254548231357
-0.07454121984694446
-0.07131775364904906
-0.07599968644069043
-0.075941583508495
-0.07399683380538707
-0.07273913609230878
-0.07302465364963454
-0.07023710494943336
-0.07125348057405596
-0.07421147409737912
-0.07108755701359773
-0.07237407114301175
-0.07189647473528678
-0.06944560431103171
-0.07238559998416567
-0.07345318554137889
-0.07195162600968312
-0.07289457639827726
-0.06545021014754247
-0.06470194352182043
-0.06465822798936399
-0.06597316235010678
-0.06668185214667741
-0.06673903227821287
-0.06593232324578066
-0.06557871787851594
-0.06479048951841765
-0.06492520677705971
-0.06605633097716861
-0.06704392788762972
-0.06618319960796609
-0.06686519990823167
-0.06752462097294071
-0.06854083886269094
-0.06932496997616551
-0.07008483428800631
-0.06921663236207656
-0.06764293064442183
-0.06836440362440423
-0.06744731397675804
-0.06818323783273397
-0.06996149824876985
-0.06911205688923132
-0.06914605154997047
-0.0682391390226552
-0.06740965104026188
-0.06751528783669032
-0.06573724745732058
-0.0661944342566106
-0.06696647187783165
-0.06880256090273168
-0.06741595979191255
-0.06818389936389939
-0.06639580124074786
-0.06512102845928876
-0.06538215214376682
-0.06662064499342946
-0.06732427041165155
-0.06767324857919488
-0.06636985134699339
-0.06839587376639013
-0.07032987032717926
-0.07047752283648548
-0.07142041427041067
-0.06883843697548794
-0.06969585147356004
-0.07004236594743925
-0.06805937129449284
-0.06882273088873377
-0.07088843079866554
-0.06949003442702532
-0.06917308916997246
-0.06971670330967057
-0.06781965292335776
-0.06001503397847122
-0.05982975552493096
-0.0609603172126023
-0.06128737055806406
-0.06288500805722981
-0.06186258805452697
-0.06007414801821103
-0.06014581044669826
-0.0607918756312717
-0.06040426465420584
-0.0633266173949628
-0.06460457387999732
-0.07579737127268388
-0.07383842811127443
-0.07388035992060274
-0.07574962335166624
-0.07802222009169338
-0.08055454181208875
-0.08062088674222148
-0.07796539795114264
-0.05971077974678871
-0.05966272510220708
-0.05967910524539507
-0.05969529241825428
-0.05975340790819005
-0.05977670379718371
-0.05980337071249707
-0.05972490080941344
-0.07076934290202543
-0.07217926267158226
-0.07221652007203777
-0.07073190827145719
-0.06949286213216171
-0.06832973253475479
-0.0683685669651697
-0.06945522741238522
-0.2104456369575396
-0.1666939714776359
-0.1664527238705424
-0.2111610727842582
-0.06111179584352174
-0.06130816844991117
-0.06133473997703759
-0.06108506434728778
-0.06090811755025097
-0.06069456591292296
-0.06072119332305178
-0.06088138931757895
-0.06189604572991692
-0.0615695005675821
-0.06159591553488713
-0.06186988378053533
-0.06222772795978686
-0.06257040030205814
-0.06259496363529235
-0.06220218907174983
-0.09184314539308155
-0.09707229478218096
-0.09728842171639268
-0.09167865101936601
-0.08739127619344325
-0.08361941583426898
-0.08370816348914077
-0.08727276701754538
-0.06000720760213252
-0.06006010327457179
-0.06008640956644568
-0.05998092016323845
-0.05993182425630454
-0.05983428760617593
-0.05986098277019874
-0.05990529997633786
-0.06588638956737466
-0.06516350230663466
-0.06518378391556717
-0.06587227892497755
-0.06660430973271074
-0.06736941308774448
-0.06740472985479236
-0.06658014503969086
-0.1129079722103131
-0.1038422239385873
-0.1041357050170633
-0.1125625969868693
-0.1246198634863944
-0.1409482687766626
-0.1410873610186716
-0.1242795045279428
-0.06029743884296476
-0.06015621076960881
-0.06018269566760096
-0.06027074584736322
-0.06042259145715468
-0.06053252388023347
-0.06055915845849717
-0.06039585651016505
-0.06400235760268508
-0.06452119266258693
-0.0645483854464204
-0.06397583003536544
-0.06349510644232084
-0.06299713292919989
-0.06302094773734326
-0.06347067959752811
-0.06013147950537296
-0.06044287196814806
-0.06049102897000942
-0.06007843540984177
-0.06023726999134748
-0.06073115635978048
-0.06038522575752625
-0.06058829998958342
-0.06115923698204619
-0.0619132588372378
-0.06150073617273451
-0.06157197288138963
-0.06083299083383862
-0.06092413297720212
-0.06058021124770357
-0.0611755911294699
-0.06276219881678673
-0.06209792984346603
-0.1913571877851888
-0.1466670046313529
-0.1155042560742909
-0.173994174546274
-0.1684102513495032
-0.07281427196217743
-0.5634581356472682
-0.6344835872266239
-0.5588725785096771
-0.5867241114856894
-0.5983700670472031
-0.5348501880249853
-0.5486044326962083
-0.6398943453030368
-0.3653793641342583
-0.5331622499110257
-0.3543884297434982
-0.6559985461245884
-0.4849673985202574
-0.5486626150416349
-0.5020725833264316
-0.665349670009142
-0.5642399874827518
-0.5242432041961882
-0.5529783451672086
-0.4555416922852163
-0.5471281305132
-0.5125568032146021
-0.06754952200303145
0.05638060794258187
0.1451248827486311
0.00700402037673564
0.06584260353855607
0.08304355460141954
0.1653354015583259
0.02915822342901172
0.03523101933442595
0.1195495083036159
0.09341594131597691
0.01458948081014363
0.08891330980860143
0.1055798384050825
0.1413704430320424
0.1171486785206477
-0.5926661352286569
-0.7084908077987988
-0.06654626028086878
-0.07421711696801812
-0.07750570672172066
-0.07924733376875354
-0.0756823350938749
-0.0660848693509702
-0.06672218807592435
-0.06788491581284453
-0.0672571265091387
-0.06433059403668943
-0.06436662943777818
-0.06562857125100059
-0.06559607774320785
-0.06521172366790366
-0.06558966484009833
-0.06641365032083892
-0.06677571723188762
-0.08426914862018046
-0.07971082202770077
-0.0814563087802269
-0.07748451410230683
-0.07180126363012317
-0.06999704367943969
-0.07310799273305342
-0.07121743590389501
-0.07436450268663661
-0.07656515592963903
-0.07467607265205346
-0.07265842003842714
-0.07200186159467649
-0.07261449313941358
-0.07470774423932867
-0.07348608300202669
-0.06861164843221461
-0.0687120457700949
-0.06978936144492033
-0.06923387507356876
-0.07018277583969761
-0.07079337901644552
-0.06861554244404859
-0.07277788728132457
-0.07006440715196353
-0.07116663022690177
-0.07163439659400209
-0.07156466886808528
-0.06443806944911439
-0.06454859793590949
-0.06569313117580233
-0.06579362234191785
-0.06709089168489568
-0.06875338199201995
-0.06877701433070138
-0.06706251752523269
-0.06714749612959076
-0.06889977391128403
-0.06882447631711958
-0.06723632721576585
-0.06492256318503353
-0.06470722800669675
-0.06614023494910011
-0.06593964142714437
-0.06780584520490338
-0.06973320329889426
-0.06814954554682874
-0.06941034999681819
-0.06755087167740496
-0.06901378921135835
-0.06917678646362731
-0.06736758722554109
-0.08047629259887022
-0.08694302608647084
-0.08506451412786011
-0.07907394360940502
-0.06324587398700081
-0.06328484222931362
-0.06236790239784142
-0.06232646967088622
-0.06417864682176215
-0.06456897251805627
-0.06330139107213408
-0.06370130909817094
-0.07299840877299806
-0.07609919163798928
-0.07198512287025011
-0.07494693887745603
-0.06507475919987059
-0.06571918595552284
-0.0648652135940868
-0.06421526268019073
-0.07690130699081521
-0.08215603318829906
-0.08351957689202559
-0.07790159910542156
-0.1159683442529761
-0.1104549427731913
-0.09730056781521609
-0.09441118718001174
-0.1026590297500805
-0.09001848142767493
-0.1064703840125549
-0.09212992534874609
-0.06093343160415414
-0.06097897546631468
-0.06160247145867843
-0.0615589513524261
-0.0633620598478211
-0.06348092216019163
-0.0624501060725146
-0.06257602538784139
-0.06120785956535325
-0.06107036839734183
-0.06168916692412151
-0.06182110247865238
-0.06237920660442389
-0.06196851997398727
-0.06256703957884723
-0.06297353208105869
-0.0638770268764578
-0.06364985846199187
-0.06299002510330064
-0.06275341016539158
-0.06139715345131479
-0.06164571372543848
-0.06224877441965177
-0.06200515708949448
-0.07316399793691153
-0.07041678625082169
-0.07112809926799009
-0.07397667237734216
-0.070692818499293
-0.06895013315203248
-0.0697600501957511
-0.06806276373694872
-0.06669603577417038
-0.06831791257215576
-0.06896991459574035
-0.06731181259085059
-0.06759655110527836
-0.06569211340530441
-0.06673325669737322
-0.06290228852512053
-0.06355889847428746
-0.06414643722052361
-0.0634929395744151
-0.06540953558870029
-0.06438493593267469
-0.06497227574890919
-0.06600440707165951
-0.07452892612011301
-0.07349699453726728
-0.07435601890082331
-0.07363919538041233
-0.07321073831825095
-0.07309464200043446
-0.2582129520171167
-0.234002301336305
-0.2560217767382456
-0.1833045685174419
-0.144723165926384
-0.1645747260534252
-0.1471600815513794
-0.1923348778128345
-0.1460508565028169
-0.1689039256840772
-0.178479571329415
-0.2210054681993369
-0.2649591018473119
-0.2185501567594805
-0.3336141834611847
-0.3111942958880063
-0.2881575227854344
-0.3379675927908376
-0.2654848781481683
-0.1249941341147311
-0.4457836079595019
-0.3223273690925106
-0.5096456429444082
-0.53249533785656
-0.5533979655092357
-0.5487822564961059
-0.3691698946054592
-0.4586810046811545
-0.07224846579906449
-0.07189762253191796
-0.1652116520447791
-0.1060491236149972
-0.1607231630774046
-0.1406152272651932
-0.1244576238923859
-0.173546683535475
-0.1233417014021489
-0.1182468775221
-0.0988325091810791
-0.1069620170915908
-0.09323518402597203
-0.0863190302335769
-0.11872352083307
-0.1049535280688144
-0.09375760491401269
-0.1044432509727531
-0.08686895182221288
-0.08848460729763673
-0.09480162525313016
-0.08245569687820417
-0.08192726634982873
-0.07904505851947184
-0.07253672689002232
-0.08802524841604673
-0.08822706975616731
-0.09565467246669393
-0.08182789204785373
-0.07529962654473017
-0.07819479694903395
-0.07894944820371927
-0.07483961724728569
-0.08350352452058074
-0.07831297247968229
-0.07634791459862764
-0.08060539761375228
-0.07126498477235191
-0.07207571103850044
-0.07116646727827854
-0.07195108153316943
-0.07107201007665939
-0.07110241415902888
-0.08405272572761636
-0.07947650395520663
-0.07752060550371681
-0.08118975764623768
-0.07616605113772072
-0.07762933224686856
-0.07904519027489311
-0.07525091743489175
-0.07415464979727945
-0.0765057085071089
-0.07459474782898812
-0.07577631722949701
-0.07384183812667515
-0.07482317837285264
-0.0714188608591947
-0.07163354679365515
-0.0751901822576574
0.02312171434510129
-0.3968938904131946
-0.08841223290277979
-0.04136156100438474
-0.3363400779040818
-0.6186277691862215
-0.646872834343367
-0.6669661146229413
-0.5793814694915694
-0.6813488941599046
-0.4850856023774236
-0.2919981857514882
-0.0004274861914762774
0.01196726385283392
0.04672541751111037
0.03967335196503043
0.06139408096082058
0.04899084189508981
-0.07069909687608025
-0.07071763410657061
-0.07081563315869992
-0.07075520086451424
-0.07474797860200166
-0.07411574712647606
-0.07704542977942404
-0.07568360207636611
-0.0733980119600931
-0.07368264324827868
-0.07126212147265357
-0.07091054464552973
-0.07105123903472475
0.09252338134595495
-0.06403869234432751
-0.05190015727661826
-0.06468599368042359
-0.04863250243293114
-0.04515413211308415
-0.04810247923281243
-0.04479128865508937
-0.07687881989309318
-0.07877979372220929
-0.07558038592561968
-0.07848368152407544
-0.07921765887530428