/*--------------------------------*- C++ -*----------------------------------*\
  =========                 |
  \\      /  F ield         | OpenFOAM: The Open Source CFD Toolbox
   \\    /   O peration     | Website:  https://openfoam.org
    \\  /    A nd           | Version:  7
     \\/     M anipulation  |
\*---------------------------------------------------------------------------*/
FoamFile
{
    version     2.0;
    format      ascii;
    class       surfaceScalarField;
    location    "0";
    object      phi;
}
// * * * * * * * * * * * * * * * * * * * * * * * * * * * * * * * * * * * * * //

dimensions      [0 3 -1 0 0 0 0];

internalField   nonuniform List<scalar> 
37111
(
-0.02928974833722585
-0.0001143434048029369
-0.0008277075474690156
0.02939945819197327
0.0006839262040624782
0.0001484148934640463
-0.007946961812114007
-3.867129964027906e-05
-3.340535564163281e-08
3.766252054249923e-05
2.119348829486865e-06
2.936199185204609e-05
-3.192795248742039e-05
-0.0077122323972214
-1.5214634502961e-06
0.007884180047611246
-0.007841389116907172
7.56211205175174e-06
-0.0007308037483769585
0.000680450705621479
0.007911127526433829
4.755601650294117e-06
-0.0006144494921967746
0.0005827464116805116
0.001739122827159369
0.008363498528014589
-0.002134662445012792
-6.116920377880233e-06
4.048800366437584e-05
-0.008002329993448016
0.008447577514187996
0.0007657138846729107
-2.202338343372542e-05
-0.008518905155909379
-0.0001696082528622171
-0.000165444465148737
-0.0001679885154669094
-0.0001693216260405877
-8.954739616409872e-05
-0.0008053325452960513
-0.008558701022175878
7.114770070886271e-05
0.008511439895069559
0.0008709933678579331
0.00164251255101401
-7.783781950752162e-06
0.008476325421316679
-0.0004691486470299639
-0.0004864413131979004
-0.0004896956550301346
-0.0004675888818429156
-0.008198179693280801
-0.00827468621550905
0.0002213600233311121
-4.270288091788967e-05
0.008237350918865766
-0.0001728482150030512
3.152636923784929e-05
3.99983839382294e-05
-0.008159093550853241
-1.081674405312072e-06
-1.20898006700092e-05
-1.055871358468258e-05
-1.178801406159574e-05
-9.797997874599765e-06
-0.008210120673599903
0.00020223984420812
-1.022285811995477e-05
0.008175137168139586
-0.0001570334806274109
-1.771266502903527e-05
-0.008211253990080209
0.008197777249273203
-8.183501485546421e-05
1.304476714501181e-05
9.997965354637073e-05
0.0002950062681999406
-5.58497522614252e-05
-0.008322167189740996
-0.0002329973163090684
4.132177455124123e-05
0.0005840696380176928
-2.071641180933073e-05
0.008372276598641483
-0.0001242172120664313
-0.0001212015274006277
-0.0001208818542865577
-0.000121751716934835
0.0005073090665537171
-8.103770260657774e-05
0.008379462320556022
-0.008444847792845926
-0.0004216094013684736
6.072350971320888e-05
0.0002636767547933179
-1.347746180766722e-05
-0.008256519778191258
-0.0002038001884384839
-0.002354561605972761
0.0002040744226493844
-3.458363329224763e-05
0.002317646726050824
-0.0001592831157890804
2.670720635200378e-05
0.002173838521874621
0.0001051688203619718
-4.988555617331292e-06
-0.002200673972598342
-1.628851676329138e-05
-1.934833088545592e-05
-2.051557283402387e-05
-1.719239353836259e-05
0.002206130390215551
0.000118089806264953
-2.483084196974081e-05
-0.002239866159459626
-7.768363826382944e-05
1.816044321198904e-05
-0.002317454312095973
0.0001998557080236504
-7.178309293641731e-06
0.002271419413917032
-3.80023485715472e-05
-3.626400280891607e-05
-3.562480977216401e-05
-3.675133939702333e-05
-0.002071563428959983
1.339358777323937e-05
-3.431913141881326e-06
-1.028924745888145e-05
2.605017022578289e-06
0.002069285984764337
1.12884112513977e-05
-0.002036136521169621
-2.644769387502333e-08
-2.658558039168803e-06
-4.58221441021852e-06
-3.011502821545796e-06
-4.535896815645275e-06
-0.002048049405768707
1.489126578174151e-05
-7.871303855760797e-07
0.002046718772512926
-1.277350214028529e-05
7.279784972235334e-06
-4.549251011630059e-07
-0.00206149481553502
3.645543513520206e-07
-4.027574039807048e-06
0.002133808701647152
5.899296746889092e-05
-1.556271629507067e-05
-3.77848881416158e-05
-0.002150703829698278
1.124976502086278e-05
8.699928918920401e-05
-4.653740148965351e-06
0.002151985879811559
-1.737600059165134e-05
-1.390807087516189e-05
-1.298336874016847e-05
-1.622546678319139e-05
8.623954466400335e-05
-2.207052698134224e-05
0.002187391717843412
-6.18581620905682e-05
1.642781676068024e-05
0.002109669407236875
5.02582462263826e-05
-3.513520158463243e-06
-0.002119155157418724
-3.725897588663085e-05
-3.76721217842661e-05
0.0003118222141438846
-0.002427785250427915
-0.0002298626797151196
2.893623178842979e-05
0.0006242682069423649
0.002481847296352657
-0.0007694074268004774
3.480526831699482e-05
-0.002334569304055935
-3.694404075495021e-05
0.0002605963456798566
-7.287875426065121e-06
-0.002372168673771673
-4.969150318154768e-05
-4.87995851981e-05
-5.007549263556706e-05
-5.002752757611432e-05
0.000337971253065248
0.002364323134038658
-5.211716243929587e-05
-0.002438734180575358
-0.0002491151658906515
0.0004157155416735092
0.002396443444099514
7.60294973018286e-05
-0.002466133936625438
-0.0003443394131073925
-7.771513334196457e-05
2.063887474868724e-05
-4.510474279335633e-06
-1.201187074903586e-05
-0.002079036501755848
3.356543057257976e-06
-0.002072211045991634
2.02518660451542e-05
-1.631019039252381e-05
-1.886544437077862e-06
0.002070155914775997
-0.002094786201136643
2.306309125246428e-05
-7.933220112338355e-06
0.00209034686906452
-1.667599873805339e-05
5.985459669405551e-06
2.507626950546402e-05
-1.036504593045879e-06
-1.349952038172613e-05
-0.002058589650311717
4.40014282322924e-05
-1.370991180471669e-05
-3.119190501023708e-05
0.002124499309425499
1.020978078553709e-05
3.492442259618643e-05
-2.06508883067706e-05
-2.169097102784297e-06
-0.002084315483190342
3.290830114989539e-05
-9.272513413640998e-06
-0.002104912915973498
-2.042325552496581e-05
6.914182608441199e-06
3.896514556535932e-05
-3.234836363065382e-06
-2.929456529318787e-05
0.002103233663309933
0.0005437955907601183
-6.340236044944757e-05
2.826419911626384e-06
-0.0004901332798413541
6.913629618478662e-06
0.0005499757699566781
8.615267778086708e-06
-7.76172574996419e-07
-0.0005537360339464875
-4.078831213355884e-06
5.724244877162165e-05
1.916399706040287e-06
0.0004823249259922087
2.311816283401204e-06
-0.0005675954543656236
1.169843450852043e-05
-9.877268844325876e-07
0.0005624723446087527
-5.587597867361103e-06
1.97684028562222e-06
-0.0005050528971579361
-1.688118761869085e-09
-6.407885282665637e-07
0.0005037185335188345
-0.0005122791133248502
7.266772916373178e-07
-4.77490332944301e-08
0.0005122296367139623
-6.294516477772939e-07
0.0004789900277115121
1.028511866901829e-06
-0.0004811711583236277
-1.945313317829469e-06
3.097932062576651e-06
7.699510056214253e-06
-7.340005661177144e-07
0.0005466872082780949
-3.67694781784714e-06
5.675823647043027e-05
-0.0005359603578506065
1.614305436041525e-06
0.0004760337058691456
1.554110075109105e-06
0.0005383928923482249
5.910074143006785e-06
-5.889628754055196e-07
-0.00054091992598566
-2.794077630312329e-06
4.913963688810054e-05
0.0002862424310860575
0.0007700888035772414
-0.0007759656925163456
-6.540905315783843e-05
-0.0002640961258765722
-1.228696565744753e-05
8.402019738914588e-05
-0.0007264898333120011
-4.615590895779984e-05
8.894800432272612e-06
0.00069201771010633
0.0006575899011271839
-2.331548322605184e-06
-0.000684880178152136
-2.87619010268888e-05
5.838372637484177e-05
-0.0002365742553472809
0.0001582333018104677
0.000690325297332101
0.002613659487189066
-0.0007978676527760328
-0.0007971005055753245
-0.000835668882422034
-0.0007950067902111184
0.000958953171379319
-8.617113263607626e-05
0.002782414933462449
-4.213003180116608e-05
-0.0001631692897393842
-0.000715592513892971
-0.0007714155058696302
-0.0009773131000053884
-0.001173011149377278
-0.0005210295823666489
1.1647806305348e-06
-2.719670696949722e-07
0.00052103733260672
-9.005638005092597e-07
0.0005179216188416145
2.680259269729649e-06
-1.990154244231902e-07
-0.0005195005462407033
-9.023164464752104e-07
3.321041875117934e-06
-2.783297440040291e-07
-0.0005228500256913521
-1.222268813493445e-06
-0.0005252851416472985
1.947162413684119e-06
-3.60126087294796e-07
0.0005249818248769747
-1.283719556186955e-06
1.844462745051715e-06
0.0005054772231148145
-3.264397291179227e-06
-0.0005107853863908057
6.728097821967037e-06
-0.0005970017873783384
1.987575135217522e-05
-1.385545829095329e-06
0.0005880228677168699
-9.511285861154263e-06
2.194548934231387e-06
-3.84422762690664e-06
-0.000523988646838358
8.700079397697365e-06
0.0005169382461330898
1.332151027604967e-05
-1.04946545555109e-06
-0.00057354414468043
-6.32335451176649e-06
-0.0005154978813495741
7.986934410716962e-09
-1.257500348476204e-07
0.0005159895339377251
-3.738894873053695e-07
3.287005320877674e-06
-5.850501270371266e-08
-0.0005147086931170302
-7.989205228616525e-07
9.767555113680743e-07
-1.152971454654921e-06
0.0004768635155531428
2.302728095012481e-06
0.0005310529212249085
5.396850034966366e-06
-4.841932213231639e-07
-0.0005337863327162734
-2.17924532189074e-06
5.581862647219676e-05
-0.0005200441362983348
1.004450373247258e-06
0.0004630840783171438
1.36981135933479e-07
5.202482761808424e-06
-5.577696085415352e-07
0.000536249858430258
-2.501679242472386e-06
3.840570290627356e-06
-0.0005889776194445232
-5.738192515861858e-06
0.0005694964791983238
2.137876247138676e-05
2.359662583175161e-05
-1.47047606764737e-06
-0.0006078799106412251
-1.124802650849489e-05
2.632149490578902e-06
0.0005322746739435698
-4.577753651278688e-06
-0.0005422071525051672
1.187808272279325e-05
4.372950807439481e-05
-2.076984478031395e-06
0.0006371309793850872
-2.119360186285043e-05
0.0001541461419554891
0.000594197768044165
0.002526205268780998
-0.0007777201280822166
-0.0007732654886330477
-0.0007983423788445095
-0.0007669878814260966
5.555489119160341e-05
0.0005076738767190492
0.002466243930164409
-0.002875326556132992
2.365094210191781e-06
-1.282805937311252e-07
-0.000517056528011893
-6.781669604386732e-07
5.206552962258939e-07
-1.949513572747393e-07
0.0005181930459197522
-5.971310232806664e-07
2.885128656721965e-06
-4.647391180440881e-07
0.000530400711565868
-1.768179888492248e-06
4.211819601743899e-06
-3.693405621746081e-07
-0.0005274872315645323
-1.640389131281942e-06
-0.008189167617734854
0.0002514790113669641
0.008165680471144309
2.148447346801038e-05
-2.811631496406919e-05
-0.007939633070432975
0.0002512040928537529
0.00794241641017227
1.259720268127235e-07
-0.0002541134046200785
-0.008112361043887701
-9.536928749305096e-07
3.888824765396667e-05
2.975622226485003e-07
3.879248067737271e-05
-0.00795285995585635
-3.999423662418702e-05
-6.516749101107675e-08
1.944038934386053e-06
0.0001876147799883418
0.007950511771485187
-0.007947224354573339
-0.0001921696089298717
-6.766269048836961e-07
-0.008148577784263283
-7.214249170109564e-06
0.008125840913685248
0.0002321909639152223
-0.008084040328705463
0.0001167618366430223
-0.0001114008040526687
0.0080800221528996
5.470575827305542e-06
-6.813432610696901e-06
-0.0009536566922396575
0.007591165275680257
-6.43316048067936e-05
0.0008419057389165384
8.84787246620458e-05
-0.007503561442213458
0.00743079221798228
-0.007413335460451882
2.523310751959447e-05
-0.0003505154803067368
-1.649224711918845e-05
0.0003243178623745279
-0.0003374788377510456
-0.007857670940046486
-8.597526637900998e-06
0.0003205598161202144
1.31235615390144e-05
0.007870063926776265
0.000126672544484183
-0.00749760521240032
1.3137629179964e-05
0.007517663169940105
-0.0001505264426912405
-9.341688515547216e-06
2.226316309656451e-05
0.007461228045137975
-0.0003116818696653297
0.0002734459078321642
-1.446302843483653e-05
0.001461425702323728
0.008059168679254361
-4.56596954658021e-05
8.038719471070433e-05
-0.007816199053720746
0.0009597631925003041
0.007693001136985166
2.102104366562314e-05
-0.001087278047214167
-0.00758650732593592
3.927285314554678e-05
0.0006952386214598411
-0.0007583475540818387
-0.007817899729722612
-2.625529479410504e-05
0.007867991103994198
0.008280417807539188
-1.10185648957758e-05
-0.008292629722164319
0.0007889443641662249
9.412560690609139e-05
-0.001087782617382478
0.00765800400317588
-6.724419902595543e-05
-0.007550759485925056
0.0008173242842206856
-0.0008617875816084997
-0.008080255832197875
2.230922702661442e-06
0.00811856137642117
3.926830465393339e-06
9.313459432907781e-06
0.008153409729745136
0.001421086489708526
-0.007941297127906572
0.0003318594428163134
-0.008217817257468212
2.725283758944888e-05
-3.545637255554016e-05
0.0003248832446125246
-0.007935207072958753
5.644719588299606e-07
-0.0003298737140889035
3.90312451541088e-06
0.000534334805716799
-0.008005660856480665
-2.705517856775051e-07
0.008017881265191368
-0.0005501877871592465
-1.213665869716727e-05
0.008249733184883859
0.0006268909193263441
6.278237420643015e-06
0.007942642603182351
-0.0003478535687125493
-0.007935298500780633
-3.24760888703424e-06
0.008248934472552063
0.0005452919449022417
-0.008277668734006292
3.535338944768779e-05
-4.460200639035818e-05
-9.200067325030049e-06
-0.008178789719461357
0.000303088757246034
-0.0001349669143028773
0.001501383864514549
-0.009015190544217885
9.329693535392052e-05
-0.0003507667750199938
-0.0003947620313886083
-0.0004060966408794491
0.009045073358991377
-0.001628468293067717
4.24863629392714e-05
-3.486832810876308e-05
0.008537350618006189
0.00144699816819321
0.008911635756818866
8.636908137473567e-05
-0.0006860064493717413
-0.0006731066636786613
-6.106949536828825e-05
-0.000703035161602842
-0.000697272997949698
-0.008312176515283615
0.008440850646937167
-0.002046760401198002
5.401670041194156e-06
0.001701614524792666
-0.008107223360997456
-0.0003939283226112863
-0.0004752858217311898
-0.000456261270795823
-0.0001562742323452959
0.009045665738466028
3.398203010854504e-05
0.008567260572529335
0.001383478271631288
6.529984264522988e-05
-0.0006080740210470381
-0.0006193844587250769
-0.0006617658937375364
-0.0006662041974139425
-0.008485453135885437
0.0009763309199588497
0.008839474340730838
-0.009009895402681175
-0.0001826043361820686
-0.0002004026663872888
-0.0001787575407678987
-9.379642164678107e-05
1.470914762589004e-05
1.163317704017109e-05
1.589328668879716e-05
1.148991825260248e-05
0.002163881951802774
-5.438846593671132e-06
-0.002187202509328127
0.0001339282244686513
-0.008543508853043141
-0.0006868227651975827
0.008475318954368573
-4.847794837621866e-05
0.000781467228792834
-2.118497648597635e-05
-0.008552763913317376
0.001006789430289249
-0.0002341036940482811
-0.0002423734850043982
-0.0002437481246480125
-0.0002315203927191241
-0.008569838368306852
-4.609422366874487e-05
0.001027569682323641
0.00867580198320937
-0.0001274125775396974
-0.000116268128980626
-0.0001265419875186907
-8.384052015105311e-05
1.089081243280934e-05
1.323594848100479e-05
1.132928468892827e-05
1.354656709987609e-05
-0.002267301953413866
-6.656860883579524e-06
0.002240153861026065
0.0002336606612814245
0.001410219428034723
-0.009051582129979746
-0.0003607827339478228
-0.0003014397746032006
-0.0003500205603920521
1.004217132733354e-05
1.393286683030721e-05
7.971437234849301e-06
1.688304222179332e-05
0.008478308977795388
-0.001967086794874647
0.001666465301452496
-0.008180069596349655
-1.690764976484337e-05
0.001310807866561808
-0.0003537703349136157
-0.0003315952718864301
-0.0003340532046349088
-0.00035091989741842
-0.0006217389502062008
-5.311533343420246e-06
0.00230348156294906
0.0005592981204483295
-0.00223572919984741
0.00133576441777239
-0.0005631164279283527
-0.0006140384381097277
-0.0005404652867726757
9.702755659591754e-06
5.311032613971667e-06
1.350807574297393e-05
-1.939828541058525e-06
-0.008638062758023347
-6.211336012596658e-06
-0.002298159834173369
0.0002976655624310526
9.322595145010439e-05
4.98611899538196e-06
0.008193275211467784
-0.008214333486348747
-1.364156946825185e-05
-1.792317075711394e-05
-2.153435519398612e-05
-1.066111238648289e-05
-0.002038256557190247
-7.360659154878823e-08
8.113002922361075e-06
-4.111356332821097e-06
-0.0001048814267101993
-0.008154642519043076
0.0001045417512042545
-0.008170330466857379
-3.747721242431426e-05
-2.746654429590618e-06
3.734546564327439e-05
-0.008173513358301363
-8.515262264610607e-06
0.0001008127487301119
-0.008166703612302425
-1.513815366201176e-05
-3.137866117321197e-05
-2.803889660788178e-05
0.002030699694258771
0.002037053531513311
0.002043179579669777
0.002045322476290838
-8.905069649995647e-06
-7.855035319839147e-06
-1.35346219924771e-05
-3.43852777429498e-06
2.158979125101027e-07
1.562770275743888e-06
-1.778854191392012e-06
1.472146465722555e-06
0.0001214652764290692
-0.008250576690169233
8.88530633851013e-06
-1.680612972242504e-05
-2.242698370533483e-05
-1.597137769381127e-05
-1.826401312565214e-05
0.008196303461284823
-0.0001585006834026467
-0.008232000434530285
-2.070443752740429e-05
0.000204679236015999
-7.124622958073937e-06
-0.0001243464011363751
0.000151965673117397
-1.293416750524933e-05
0.008203016942761269
-0.008250886811083932
-2.144175040502325e-05
-2.783431471146058e-05
-2.670151369504826e-05
-1.448619836076299e-05
0.0001516169547055364
-0.008299022240687917
-2.518467225708944e-05
-2.195182514350884e-05
-2.632465172005215e-05
-2.646506011322688e-05
-2.35016710932954e-05
-1.478871857793062e-05
-1.57811052638575e-05
-0.008543646385580353
0.0003699590495806682
0.008437743656739187
-6.124652883557282e-05
-5.74803445368364e-05
-6.135598294358137e-05
-5.782093302246553e-05
6.043658329049216e-06
8.857161143525309e-06
7.304027148863856e-06
1.063558942771632e-05
-5.071270794192306e-06
0.00214649639028748
0.0001094561214781474
-0.0004966038376965519
0.008401147506449843
-4.554556560575898e-05
0.0005956044393606981
-1.848676983948282e-05
0.008307989189238823
0.0004482991507755361
-8.930847024219563e-05
-9.334928846513953e-05
-9.378039090212774e-05
-8.908682194802987e-05
-8.187328692985368e-05
-8.627784503060327e-05
-8.062133654142625e-05
-7.083245112962411e-05
1.110047237192174e-05
9.270234581635825e-06
1.116460756676744e-05
9.860909623606029e-06
0.008336090621372144
-4.010550374093663e-05
0.0004566346684780403
0.002097192813579023
-3.524646080287193e-06
-0.002115063594593654
7.165367330405608e-05
0.0002751819468695653
0.008360230833540545
2.418502611299728e-05
-4.390483972387723e-05
-4.324468795686423e-05
-4.475044927383111e-05
-4.595274464282231e-05
-0.008278414562697022
-0.0002084767723655861
-2.719366501371136e-05
0.0002686071036744623
-1.678461514156415e-05
-0.0002740127067970846
0.0003422667329266441
-1.759603041903977e-05
-0.008309748432538216
-3.398909174780315e-05
-2.852979051743635e-05
-2.989923176375923e-05
-3.38351498818371e-05
0.0003499085401918618
-3.193052049469812e-05
-3.381802339643076e-05
-3.064185679884756e-05
-3.556550819036626e-05
-4.095878025660088e-05
-4.545948875219689e-05
-4.47068840698277e-05
-0.002105734764797476
-0.002094284699074721
-0.002092273537209387
0.002221872819517966
8.922055223927687e-05
-0.00225947455901112
-1.458297090673134e-05
-8.149893240770269e-06
-1.505713908546652e-05
-1.124087249078956e-05
-1.197130151714361e-05
2.416033620597719e-06
2.15633945525298e-06
2.438266139282005e-06
2.372725281885003e-06
0.0005484263497079448
-8.851848571639916e-07
-0.0005522974772207606
1.33715801411491e-05
-7.261677788054729e-05
-0.002211568912622867
0.002183987146565659
-9.400857827076137e-06
0.0001046108461375486
-5.799475771147802e-06
-0.002232209828542045
-2.454867142640519e-05
-2.148019168149266e-05
-2.061401720380651e-05
-2.335793677272127e-05
0.0001273361487865588
0.002191314592429639
-1.244064884954967e-05
-1.28827074485662e-05
-5.914896394671663e-06
-9.824136802692106e-06
-8.980361117805566e-06
1.845275274421035e-06
2.049685554153139e-06
2.028905189918465e-06
2.060333778654879e-06
-0.002242736387999463
-1.250974291230413e-05
0.0001270982947203096
-0.0005654229912961499
-1.120962770817413e-06
0.0005607491320439467
1.749325652459186e-05
0.0001133141918872127
-0.002308142862827866
-1.647982906560929e-05
-1.815047415249619e-05
-1.142728518626796e-05
-1.501427964564143e-05
-1.449254819425045e-05
2.489557549282861e-06
2.833136755787241e-06
2.734718125592904e-06
2.86111572904676e-06
0.002283173992852224
-0.0001472715250355055
-0.002328343312082446
-1.620985112223309e-05
0.0002014723860830425
-6.084144433882354e-06
0.0001586588473069268
-2.675131828728443e-05
-2.892610426355778e-05
-3.014772627844776e-05
-2.753996869319237e-05
-0.0005932018994306285
-1.576731088648426e-06
0.0005851389744285937
2.951540743523267e-05
-1.13122356302399e-05
0.0001589798878949739
-0.002371184050054422
-1.971970851310001e-05
-1.635666857622737e-05
-2.257922392022766e-05
-1.931774511607109e-05
-1.941678880541001e-05
3.434261289938357e-06
2.961704167039756e-06
3.501529090667457e-06
3.262302546953307e-06
-1.202021139019214e-06
-0.000571388046749701
2.048858685883419e-05
1.830285999556529e-05
1.313208835000677e-07
0.002023721406438524
-0.002033838665277452
-6.886670479052429e-07
2.523099452411031e-06
-5.884437580255532e-06
-4.221037012974878e-06
-4.587985108923378e-08
-1.050775105567569e-09
-0.0005023428748333193
2.910377090710835e-06
0.0005014103887948332
-2.157732613080513e-07
-2.356192533727416e-05
-0.002034113782546872
2.175495996146587e-05
-0.002040317768908227
-1.068834253937113e-05
-5.28870342249493e-08
9.156375710568832e-06
-0.002040056218296277
-7.405304665894881e-07
1.856606654955323e-05
-0.002029603192638444
-8.124671039024239e-07
-6.30694151949925e-06
-5.70305557004246e-06
0.0005041549642737506
0.000502405607439428
0.0005060835075551965
0.0005070776503713572
-1.894170887411179e-07
-2.094906032367984e-06
2.354768997419709e-06
-1.752452892911697e-06
-4.920639181608114e-06
3.873013412449477e-09
2.642915948019165e-07
-4.865011220646701e-07
2.477773513323513e-07
1.588988973229889e-05
-0.002043465838500705
5.643700411541732e-07
-1.180697931997696e-06
-5.323195843747662e-06
-3.168472310863171e-06
2.143863043101634e-07
2.630893215877422e-06
0.002051545465577052
-1.216510514955704e-05
-0.002053652264982444
-1.653379511185641e-06
-4.829707685526415e-07
-1.829070046912623e-05
-8.441634861720965e-07
0.002040842212876938
-0.002047905557183077
-1.719652963155457e-07
-2.439009467302262e-06
-2.247032667353124e-06
-1.142730403055856e-06
-0.002050059576340017
-1.688861089187943e-06
-2.560608675269613e-06
-4.91266163491787e-06
2.57149746554349e-06
1.751031055392609e-07
-2.996424854153143e-06
-3.436553491174008e-08
-1.695145171139775e-07
-0.00216668791516147
5.008824165582462e-05
0.002145913650506932
-9.562785130227958e-06
-9.925655386087506e-06
-2.968395575047059e-06
-6.900027789150462e-06
-5.96865358013662e-06
1.382721257586636e-06
1.5391505844459e-06
1.529373493962868e-06
1.560295120488437e-06
-8.306551802006884e-07
0.0005454438942208156
1.151262071358825e-05
-5.960015709140304e-05
0.002162355665877998
-9.806937716144729e-06
8.63848353241916e-05
-4.021324027269045e-06
0.002133164780110795
7.36571961933695e-05
-1.050787219148029e-05
-1.386582622150625e-05
-1.500629068630028e-05
-1.143478337686237e-05
-1.108018655955109e-05
-4.226430915039894e-06
-1.119953106582783e-05
-7.268585608314227e-06
-8.17609293187404e-06
1.784063458250599e-06
1.617882876850114e-06
1.795164262675584e-06
1.78023662154522e-06
0.002143025338761869
-7.641973959843946e-06
7.30392186668784e-05
0.0005370583071925887
-6.644145465522574e-07
-0.000539794273323694
9.310454813187314e-06
4.296510247820103e-05
0.002127784030287291
-8.513053241029344e-06
-1.959125877894696e-06
-8.847381672102348e-06
-4.855596701814133e-06
-5.755939746546315e-06
1.324974466985378e-06
8.716799404056815e-07
1.800948374365628e-06
1.098012180299841e-06
-0.002128666221063199
-3.515232341112249e-05
0.002115635674378596
-6.111545825227266e-06
5.078089574719288e-05
-3.708902282603549e-06
-1.308779075749223e-05
-9.643384775078216e-06
-8.963882143754652e-06
-1.235924692066394e-05
6.177282954212835e-05
-4.238128624529238e-06
0.002111709373607784
-5.312581705173254e-06
-3.309769837127102e-06
-3.700276879371923e-06
-0.000532043739859619
-0.0005340212350779293
-0.0005296924980495622
-0.0005312532694502862
-7.696650700439629e-06
6.131196854456922e-05
0.002114305235894709
-7.384906020967871e-06
-8.104402755718603e-06
-5.678992915108432e-06
-1.037499819601408e-06
-3.705856176200879e-06
-6.150646491265513e-07
0.0005348835434898882
7.992311101306694e-06
-0.0008513739643846137
7.607595285471223e-05
0.0007465172845797525
-8.029058937408019e-05
0.00238883339326329
-0.002279762076938988
0.000147879441447197
-0.0002877313536624927
-0.0001474313863188729
-0.0002847004728324665
-0.0002715603882931633
0.002625179551531808
-0.002346766925203789
-0.00250811305678178
0.0001378777643269944
0.0002715133538814046
-0.0001706522885159422
0.002269374227090253
0.0002018940601901939
-0.0002358844083590406
-0.0007625311233190477
-0.0007606259333572873
-0.0007838715692607865
0.0006029947208763102
-8.271198312918788e-05
0.002391915470300864
0.0003450962028855449
-3.075070312849334e-05
8.560666372698466e-05
1.382768113201356e-05
-0.0007364930207814264
-0.000734757802480772
-0.0006109671159704151
-0.0006530523582188429
0.002430381011879733
0.0004285009892057432
-0.0007428594859201335
-0.000747595648969897
-0.0007279571813425825
-0.0006676267768231755
0.000443668295260821
4.742418332117119e-06
0.002571338856187969
-3.09407088650875e-05
-0.002701636494977213
-8.117013905354511e-05
-7.155543611704111e-05
-6.770800371202904e-05
6.113048987060204e-06
4.280343555589257e-06
6.888017781676582e-06
-9.163327230348274e-06
-0.0001142766933823565
0.002424793446628958
-0.002449971540897265
0.0004684766108716975
-0.0001133062391620779
-0.0001027533272799098
-0.0001037989295473161
0.002434314341994688
-1.601528901525419e-05
-0.002461823748275183
0.0004780296632933965
-0.0006540025991096565
2.736314755038937e-06
-0.0001059082388284141
0.0006476402481218317
0.002457404777440406
0.0002897443057687445
-2.735648269307734e-05
-4.223904656742793e-05
-4.278531481788565e-05
-4.314804372284288e-05
-3.940685073647586e-05
5.112395693611247e-06
4.031551849706437e-06
5.448235656172086e-06
4.533328298547804e-06
-0.0002018457921075346
-0.002384708818457872
-1.330489787053169e-05
0.0002642283209034259
-1.693602642064891e-06
-0.0006036077971940487
3.569612622532987e-05
-8.986809208374442e-06
0.0003453517647811197
-6.952122972282755e-05
-7.286503835014801e-05
-7.306854932903403e-05
-6.828536533865466e-05
-2.242043000224967e-05
-2.98031198079702e-05
-2.49880186947974e-05
-2.656916221564545e-05
-2.74687172269271e-05
3.438084129612568e-06
4.127869352600117e-06
3.80342576760393e-06
4.255003934029771e-06
-2.190232021171873e-05
0.0003522653402593024
-0.0006457685894449361
-2.310188340008354e-06
0.0006295606527692883
6.224763308307556e-05
-0.0001480981240106825
0.0006847406789643398
0.0001153885844363178
0.002690626971854202
-0.002652332813932169
-0.0007665712166904144
8.609587965348675e-05
0.002429183878235618
-0.002358639037755542
0.002698417327322186
-0.002506254055256231
6.513704818407577e-05
0.002449781212339728
-0.002417188365633067
0.0006218787163556687
8.745664752173984e-05
0.002670798436537215
-0.002670547447966143
-5.966573933064784e-05
-0.0005788484212360552
0.002454387142905511
4.161508892744577e-05
-0.002465562092324602
0.002453814804711986
-0.002445849238282069
0.002650787432284963
6.980648197376364e-05
-0.002704311811308681
1.546483744626263e-05
-0.002068737468022659
1.673087077853479e-06
0.00206203244183558
-3.303840853256182e-06
-5.2834403471189e-06
-2.865593464063137e-06
-6.895852665216137e-07
1.709561593541819e-06
-1.980344726328439e-06
0.00206709380357988
-0.002073239226831189
-1.331545270045863e-06
-2.906475273601591e-06
-2.781621260676434e-06
0.002074497499715393
-1.644918667001388e-05
-0.002077515892302065
-3.860715607742748e-06
-1.573990116609861e-06
-1.568231221401878e-05
0.002059577902371827
0.002064911241634759
-3.224408324287262e-06
-0.002075030353275623
-3.911517079337536e-06
-3.121637606427887e-06
-5.54205905334027e-06
1.423344156375507e-06
-9.847765931264108e-07
0.002060219182305308
-2.527965417840124e-06
-8.902776771943619e-07
-1.036101530732465e-06
0.002056762007717984
1.250798115393611e-05
1.389216996023842e-06
-2.747691583870122e-06
2.059516722097566e-06
-3.40294373931332e-07
-5.002101148420847e-06
-2.596193662566723e-06
-1.303042096353246e-05
-0.002063030008703149
-2.130011021422405e-06
-1.110603328464757e-06
-0.002054997999640992
-2.182140850248959e-06
-3.03151275405641e-07
-4.46088282135944e-07
-1.324344217451112e-06
-1.247612231815731e-05
-2.199405821342321e-06
-4.915137557722973e-06
-2.513562740418305e-06
2.290549028995424e-06
-1.010358558988346e-07
-2.716235422654169e-06
-6.846046623203855e-07
-2.401749277862187e-06
-2.258713449183593e-06
0.002083430001500255
2.238398463810799e-05
2.6522308842567e-06
-0.002091886449649737
-5.233014530428978e-06
6.459033495214523e-07
-6.331035371391868e-06
-3.889832502065958e-06
-1.77178832079446e-06
-2.300811833801668e-06
-0.002081736000680004
-3.181947103466748e-06
-1.599474590704432e-06
-1.75083908251033e-06
-2.051087655507144e-05
-0.002088715517510393
-4.447687113713109e-06
-2.52896941992099e-06
-2.21693729967269e-05
-0.002088146931308914
-4.54101488425727e-06
-5.95563462721751e-06
-3.52113215809543e-06
1.007560325157962e-06
-1.40181885886759e-06
-0.002093589401014211
-5.170333081282917e-06
-0.002089972399262299
-2.120370208312099e-06
-3.664771828145434e-06
-3.548439118437901e-06
-0.002103000481591283
2.749617530310301e-05
3.022710870348621e-06
-5.945411675730745e-06
-6.878956262551278e-06
-4.421420832440704e-06
-2.286156685943379e-06
1.270912061059482e-07
-2.990720158834274e-05
0.00210779889835444
-6.449639039292978e-06
-3.451401849868838e-06
0.00210105854429865
-3.076057731347096e-06
-4.668911036766551e-06
-4.562236742264926e-06
-2.863812446323176e-06
-2.750894433216703e-05
-6.676941110448151e-06
-3.428960065092132e-07
-2.743012642014806e-06
-4.911284160871856e-06
-7.379715257484031e-06
-5.865023910960746e-06
-4.079548698704405e-06
-2.474663266664983e-06
-2.634056896592556e-06
-0.0005560036852142318
0.0005521497736443923
-4.050520475908502e-06
-1.379579124740432e-06