/*--------------------------------*- C++ -*----------------------------------*\
  =========                 |
  \\      /  F ield         | OpenFOAM: The Open Source CFD Toolbox
   \\    /   O peration     | Website:  https://openfoam.org
    \\  /    A nd           | Version:  7
     \\/     M anipulation  |
\*---------------------------------------------------------------------------*/
FoamFile
{
    version     2.0;
    format      ascii;
    class       volScalarField;
    location    "0";
    object      Phi;
}
// * * * * * * * * * * * * * * * * * * * * * * * * * * * * * * * * * * * * * //

dimensions      [0 2 -1 0 0 0 0];

internalField   nonuniform List<scalar> 
12677
(
29.60115300105218
29.04956110271426
29.04805846853342
29.78901898076888
29.69702544106871
30.12449180785607
29.82399341224412
29.82640650605185
30.12402921176541
29.33813179141098
29.0508968358387
29.3372496606904
29.14652585848717
29.43446515595195
29.72508212433907
29.62885742575476
29.4333009295942
29.96884261052231
29.80956276740879
29.81057202337125
29.9668945580136
29.17124052748832
29.02724294496039
29.17109874128375
29.02726985237186
29.60889153288408
29.75854679684177
29.75945920685129
29.60830051807498
30.02359122265213
30.19559500547983
30.02128412676904
30.02509666035887
30.031790457054
29.21932159090079
29.36382236886057
29.36415021848513
29.21914524119642
29.55947622762198
29.41230515234442
29.41267698301448
29.55891791660498
29.8510369072519
29.7988633723069
29.82546371988763
29.8770544824323
29.015290562724
29.08725405920431
29.69720052237207
29.77317329970602
29.77383454307656
29.69698616297072
30.16637934332394
30.1640442080572
30.13052051893704
30.16912794713014
30.17871273641936
29.37646553681066
29.30383001093754
29.40075907998374
29.473899050644
29.90399776146917
29.98490912016717
29.95798735368037
29.90356685633771
29.18332723992678
29.11126325080381
29.67204145164371
29.59700695956255
29.62237451435771
29.67184170323558
30.10098306382821
30.01278413074021
30.01347380201781
30.09985100736574
30.16496721765036
30.15767943185954
29.20738896076848
29.27967604125151
29.57223857480564
29.49839117095777
29.3357655576106
29.32720568297294
29.05062130590683
29.04956874239938
29.23467358165248
29.33513143325138
29.14450667510624
30.04814932349528
29.7415813011194
29.41592061156532
29.30836613075425
29.65544324196189
30.10412832823883
30.06111343097995
29.78843263038581
29.81536895988011
30.05937707602623
29.80668304651317
30.1050359207531
29.43121247146895
29.41976051497427
29.61068820803818
29.71850183937714
29.41974153924506
29.62315774287834
29.43040076444749
30.0423034200524
30.02629621615536
30.14922642547584
30.12451212888
30.04475881865788
30.02543687954974
30.14794754833315
29.93510994871042
29.80724516106303
29.82441579832227
29.92382002707688
29.92429430773487
29.83204886860272
29.9626326008915
30.04037204720819
30.12427811334095
30.02421930357826
30.17880167276337
30.02467182654008
30.14660477923961
30.01579614864392
29.146879610956
29.02721282701808
29.14614656470878
29.05091637051643
29.14621430688701
29.14679616912401
29.05112795047697
29.24281085283254
29.33739862858798
29.24157311730827
29.33888093308704
29.24167828692071
29.33906500444784
29.24268472566228
29.63150473083325
29.75660587027094
29.72543837425346
29.62707853403962
29.73099021110338
29.62737383571693
29.60713305483512
29.53320247049162
29.43349844469727
29.52985323388734
29.43554890499923
29.53011022272423
29.43580072526223
29.53286535821274
29.86334803785095
29.79848094247267
29.80973100227498
29.86120668780791
29.81132830634166
29.86141439624615
29.87653808483976
29.91624583983575
29.96721656537642
29.91359294433116
29.98407240740192
29.9138381377859
29.97027436778187
29.90298887945345
29.07526009335063
29.0152867226362
29.07516171556238
29.02724887225913
29.07517560343824
29.07525011141858
29.02728075863824
29.12325024557391
29.17112328215477
29.1231226040898
29.1712606106265
29.12313685777441
29.17128385598378
29.12323610141518
29.70929811295636
29.7728249328782
29.75869534991374
29.70804886089588
29.76002353980282
29.70817393172236
29.69671940074012
29.65906121956333
29.60840611167664
29.65799314784471
29.60910914481046
29.65810554517895
29.60922010762594
29.67159847082256
30.14809415812097
30.16701556602179
30.04731598884475
30.11477840211811
30.15014369305728
30.15416910657423
30.14338439918811
30.13412630962516
30.13465962599014
30.15600803248061
30.08323787659846
30.02167761177692
30.01181441280813
30.07699633803776
30.02576160521438
30.07750843058009
30.09821777667239
30.1579825981311
30.14588205670252
30.16214807964732
30.14346527912607
30.15470602967709
30.13930762356341
30.14148568042536
30.15108215186616
29.31584530468387
29.36420048543276
29.36387785524725
29.31548380402849
29.31552701653131
29.36425646263996
29.31579849449086
29.26756144704287
29.21917302747761
29.21935027088866
29.26726146883708
29.21938098049207
29.26730084649472
29.26752226840382
29.46156053373025
29.41275280100335
29.41236560868385
29.46096132763968
29.41281749294878
29.46103538698485
29.46148536936392
29.5105134650312
29.55901213162351
29.5596242619549
29.50981022802563
29.55972216303159
29.50989079839115
29.51042804492869
29.79890787692622
29.82472702719842
29.82477523181922
29.87711138191361
29.85078304497026
29.85083505633607
29.03927950206627
29.01529084382134
29.03927981795592
29.08725724508255
29.06327702644405
29.06327700060544
29.77321479208322
29.74763974663504
29.74767834881536
29.69701966935614
29.7222482455603
29.72228414496635
30.20114595132446
30.13073400287465
30.16247288708939
30.16280248395534
29.37648070770985
29.35222164042428
29.35223469744911
29.30384085757114
29.32800379221789
29.3280167060867
29.40077436392446
29.42508678878531
29.42510427109987
29.47391913050359
29.44947200572009
29.44948980355318
29.98499421844163
29.95745106139213
29.95752598027029
29.90362838875133
29.93035356732253
29.93042196702733
29.1833343662701
29.15929628120352
29.15930128712367
29.11126615409571
29.13526472361753
29.1352699821953
29.59703358258637
29.6218534482808
29.62188277668449
29.67187289940883
29.64680344381223
29.64683287254694
30.01287839863831
30.04115858937855
30.04126985108855
30.10001627142482
30.07013012151038
30.07025858579353
29.2073958138579
29.23145747316893
29.23146638085122
29.27968695415375
29.25556031498966
29.25556919207938
29.57226442193443
29.54755614278113
29.54757944583741
29.49841154798099
29.52293570696913
29.52295848517048
29.9700851368691
29.81474998203371
29.97587361453307
29.81129429161223
29.17133246298034
29.02734084687973
29.17176503916556
29.02728242911188
29.21944151622576
29.31677208412627
29.36436279783248
29.22000162008608
29.60931156690061
29.76307416041969
29.76008349460331
29.61129622637236
29.55984615266616
29.41407990771441
29.51215442078016
29.41292421421393
29.91680620301975
29.91504652589899
29.9721259881693
29.96785766166792
29.91766380629925
29.91426754783527
29.97101798441796
29.86470393871527
29.81303395882319
29.81245182306397
29.8653986339042
29.86380652256511
29.8624760826028
29.81228523045413
29.81002929060537
29.81170369476018
29.86450365213448
29.86182279819945
29.91792428063651
29.97356283180138
29.91878352602013
29.97243286229713
29.12327909354401
29.17140064250978
29.17116826027262
29.1232125208122
29.1231646175278
29.17132910744038
29.1233282374653
29.07527195791928
29.07523280781356
29.027256239961
29.02729410653379
29.07520307888202
29.07530021808155
29.02728440934636
29.65930176534805
29.60975894995105
29.65868376347338
29.60857997165329
29.65967715022838
29.65832676582774
29.60943003426341
29.71010146793085
29.76146785612098
29.76096869936993
29.71053384950039
29.65974527463483
29.61014240812622
29.66012302025426
29.60981118170414
29.70957421141347
29.70880425028876
29.760846530609
29.7589868670996
29.7603482700442
29.71000426347263
29.70839925783473
30.08462845386061
30.08011149240969
30.02823648136056
30.02237334059319
30.02675351187254
30.08666744011812
30.07857792045112
30.08748552449229
30.03028505037372
30.02869914904452
30.08977961044781
30.09213905616716
30.02699722464814
30.08191322356811
30.03012426290989
30.08409061639739
30.03244907371804
30.08918428085477
30.1005334255645
30.04210207146503
30.1060780165849
30.03802322560485
30.09547672291092
30.02911320220274
30.08921352433955
30.03877243717776
30.09978298914259
30.08636809889965
30.03524239946198
30.09637859705212
30.03233538715938
30.03490846283911
30.09269480618763
29.26763777788628
29.21953489735134
29.26749253513167
29.21923249505371
29.21944142820113
29.26775490323974
29.26737641320295
29.31593730771912
29.31575238222233
29.36453278419549
29.36398568357072
29.31607816643436
29.31561738879664
29.3643657097252
29.51068055910618
29.56020144223157
29.51030178711872
29.5591954981688
29.55991065492372
29.51093636770956
29.51005611070232
29.41334251613189
29.46216959708914
29.51096069660933
29.56052683438732
29.56023508200824
29.5112170322335
29.46170724419718
29.4614002766471
29.41313856591135
29.41249048138852
29.41294446386408
29.46193154232534
29.46118036927492
29.04957011871433
30.12386785219805
29.82782159856917
29.99059958116207
29.82601652282931
29.43524857110755
29.63002358476659
30.04554692963531
30.04377471098943
30.04303862008707
29.77284098894162
29.61773000964056
29.33872930488776
29.146774926669
29.98786438080882
29.81633681538155
29.97845210083423
29.82304519583369
30.17644046049574
29.99727442077937
29.94773340109018
30.05975935411423
30.15378088646478
30.17996510895193
30.20381365571619
30.14879696947161
30.07440218727783
30.15554592613545
30.06378328111608
29.95747736036422
29.73885809614843
29.04803227047972
29.5068587184204
29.65303371793973
29.30739392856818
30.10112182994183
29.78794025527743
30.05811781926305
29.91366033804558
30.04931313198684
30.02695680244774
30.14988319142821
30.12214685807316
30.02693647650679
30.14873880306634
30.04741274366434
29.93505679083805
30.00281779018955
29.94312565902894
30.09857306922123
30.06223860909672
30.11900711116763
30.1982345768874
30.11554270482939
30.09887628958514
30.04101050386268
30.05851107104947
30.09747475241002
30.11879344657603
30.05373105745577
30.17081223548846
30.15002738866675
30.12340373088916
30.05402582496552
30.17296858796971
30.15032604421128
30.15074142456294
30.17285718249648
30.20892430234126
30.17305735510935
30.20725982824303
30.17090243572392
30.20517881703098
30.09244176877711
30.12473697476271
30.20905233391172
30.18175014301977
30.20889998999545
30.1530337293834
30.11455838957393
30.11954810729319
30.15470446353433
30.12513482427651
30.12220607613736
29.52833273907495
29.61068558392595
29.41968899010206
29.72109503252056
29.8760649668605
29.81957373820537
29.87328382543551
29.82184119500352
29.94532138425099
29.92763056142402
29.82934618258804
29.83790905942855
29.92870181770049
29.94215934347415
29.84107552702144
29.83097572115227
29.88746975829404
29.88011062266926
29.82991458238767
29.88556242423099
29.76444614780978
29.77029770828419
29.61221178782169
29.61605117438159
29.5672313071377
29.41776014153675
29.41461221854774
29.51285836451791
29.56576654906014
29.41680704834409
29.77694801725723
29.72381270331351
29.77580414820171
29.72037802622883
29.72279659688765
29.66882382512699
29.61931681145002
29.67071402987823
29.61999780544619
29.67153621475754
29.36851147851776
29.02736914032222
29.17196228060081
29.17277456783761
29.02748048959339
29.31715883960362
29.2202599247042
29.36769974047002
29.22131341832137
29.9845808586919
29.93173768710444
29.99744936435278
29.93820397134152
29.9924806766276
29.93392028157147
29.92849489198528
29.82760819216521
29.88309465561385
29.87930911440424
29.82452505049144
29.87471743048897
29.81862451900423
29.86927867044007
29.81827303554402
29.87155785873889
29.87210356966139
29.82078746702894
29.98626007559115
29.99102907651695
29.93216794202741
29.92860732723679
29.98153766935794
29.98384084324449
29.98792840682926
29.9302143636504
29.92307685555916
29.92572962223626
29.92698317864181
29.87699214908634
29.8263449118957
29.88135016219191
29.87775859368614
29.82041285317841
29.87401640233767
29.82332199566183
30.00326348734442
29.94082757015561
29.99672680272576
29.93627222698158
29.83532862584999
29.93917997426557
29.92635418030392
29.93680350013604
29.82524601956772
29.92518490372249
29.83338594717555
29.24219301228107
29.24344003374761
29.33997862014069
29.24305978591357
29.33769148527027
29.24188414604737
29.3394273448025
29.05102001114519
29.14724622613095
29.05125519070398
29.14702358061573
29.050958823858
29.14634188116123
29.05118110947567
29.53132670982164
29.43703238249654
29.53480399523692
29.53384242380175
29.43388541436379
29.53059897414908
29.43629029392329
29.72719212657365
29.73357976747846
29.63354451421573
29.63232268008891
29.72615577680138
29.73203719552971
29.62797467856748
29.97169224503873
29.91606227873651
29.97356860627422
29.91880057479988
29.97539439408959
29.9202573051421
29.91738709809313
29.86741491815406
29.81681815274591
29.86992477443595
29.86810461973812
29.81335523962706
29.86576076553035
29.81530350836298
29.98044313412125
29.92089040170536
29.92429243526988
29.97353883394391
29.97763675385193
29.92205774062035
29.91893744490923
29.86332779664171
29.81306491574858
29.86543290635596
29.8666282459493
29.81223681678773
29.86444653977933
29.81406729486592
29.17149601316176
29.12327700033527
29.12339492369673
29.12348011560418
29.17145144423116
29.17161730648368
29.12335903519663
29.07545317545952
29.07552659939207
29.02736849860468
29.07545186406055
29.02731760378556
29.0753800375616
29.0273437984697
29.12357982688093
29.1237097448646
29.17194263162362
29.12358450504089
29.17159248984506
29.1717651473774
29.1234592361208
29.0752705560849
29.02730677957101
29.0753392252773
29.075389823569
29.02729762456184
29.07532089848661
29.02732324451651
29.21965955442437
29.26764192326293
29.26791020549889
29.26810709906962
29.21959419488563
29.26783413206331
29.21981759582525
29.36535883124741
29.31713952664575
29.36578890060112
29.31679217806032
29.36496131356575
29.3164376999458
29.36537747512508
29.31593230340108
29.36475426182256
29.31626543871597
29.31650271872071
29.36463609616173
29.31616156895794
29.3650351232264
29.26834164428675
29.22024166037212
29.2686348093047
29.26834692972514
29.21977873985041
29.26806262839071
29.22001044663419
29.61020145576833
29.659161143293
29.66018218560214
29.66082896704666
29.60985278750591
29.65978239752724
29.61076683555058
29.7119342974363
29.76471509459515
29.71334300165994
29.71223525102833
29.76186746430961
29.76342732181019
29.71089452198091
29.70934798860911
29.76151442483231
29.71058266869927
29.7113241035162
29.76090088415847
29.76237220684845
29.710053077577
29.6614330729511
29.66258463884539
29.61229843866306
29.66162223374721
29.61050101476655
29.66051969131321
29.61145993284023
29.56059013507384
29.51062730271841
29.51127718581305
29.51171056656031
29.56032490895402
29.51104409356711
29.56108586779629
29.46302294685713
29.41460314009395
29.46362465391506
29.46306883830016
29.41361911221033
29.41412303648606
29.46248812151951
29.56159530436078
29.56242508673685
29.51287936077976
29.51224055442647
29.56089427761843
29.51154426776789
29.5616923632278
29.46168510169025
29.4133965121393
29.46222921771719
29.46260731658781
29.41323979579492
29.41372364912061
29.46205178110193
29.23467027777588
29.33668257851168
29.14599170440216
29.53230233472393
29.43806138798317
29.53613506829567
29.53789897533856
29.43624935567857
29.53353474166206
29.43942713351388
29.72852446468569
29.7356823323091
29.63522876930853
29.73010272125887
29.73841006051732
29.63744633770609
29.6314650973608
29.24261276899207
29.24396815655197
29.34074355695362
29.3394969268407
29.34175844448646
29.24466842289514
29.24315348700206
29.0511025879828
29.14755593016002
29.05135731305345
29.14796656455945
29.05120906697677
29.14709602891334
29.05149269556112
29.7131267230395
29.76624553972778
29.7146569757981
29.76612651751207
29.76807430078632
29.71622106913015
29.71457290369769
29.77277961875678
29.76799591155861
29.71817374599411
29.72023100268095
29.77021896177709
29.71805308807617
29.71619864270138
29.66247645036271
29.66372328670013
29.61328934009281
29.66507510891642
29.61331288237178
29.66374522808361
29.61446148278884
29.66689661357805
29.61743677704005
29.66852270973964
29.666653646723
29.61455729507407
29.66516734564344
29.61582750384051
29.56850680505114
29.51705883954927
29.51814553890974
29.46729221239652
29.41851656376518
29.46817745082131
29.46363594207032
29.41516772976662
29.46427845866452
29.4650471795139
29.41524440642914
29.46437173138528
29.41582997094282
29.56239798937205
29.56328915049645
29.51363214003065
29.51451827613834
29.56336690255999
29.51369900545627
29.56430928685781
29.56688704805797
29.51554665708126
29.56445564058002
29.51578333626295
29.51465112037748
29.56549475725903
29.5167496097271
29.46593717732797
29.41596114875594
29.46618768255433
29.4174876285085
29.46519903913532
29.46697615558051
29.41659612858689
29.36912676367506
29.31942951170091
29.31994864597174
29.2705431511615
29.07553602775652
29.0756141655243
29.02739767296423
29.07571663532309
29.0274008560605
29.07563600259633
29.02743158789473
29.12372032345418
29.12385681320081
29.17215063325179
29.12402841566216
29.17219794819248
29.17239383413852
29.12388485847141
29.12422620656082
29.17246178255223
29.17299759807888
29.12429048175226
29.12445449914997
29.1726737164555
29.1240727678442
29.0758343968118
29.02743875307376
29.07587946623963
29.0275159102998
29.07597070493873
29.07574677508142
29.0274708380647
29.36581450587019
29.31754744215348
29.36627197938599
29.31802470806882
29.36635940663383
29.36683831971339
29.31761615305009
29.2686612647376
29.2205130173726
29.26897240805662
29.26936745931983
29.22056415326856
29.26904277696733
29.22082997728884
29.31857567203693
29.36697182471606
29.36825222996954
29.31874378662168
29.36749221044659
29.31813507323607
29.31921435408118
29.26982269914971
29.22090993576958
29.26997857125757
29.22161795374232
29.26947104434137
29.27035030366457
29.22119541369385
29.0872669353782
29.01529140399742
29.30390308021597
29.352262430005
29.47401451690352
29.40085910201324
29.11128904414171
29.15931307851342
29.27973570845583
29.20743805657493
29.49852224422851
29.5723993948382
29.82496150074069
29.79903553744114
29.79907737331027
29.82491652145273
29.85104129185175
29.87728701073493
29.8773397311868
29.8509926060544
29.03927942763954
29.01528908696699
29.0392784554452
29.01528961920051
29.06327250154138
29.08726413639933
29.08726697333537
29.06327064599577
29.74781934717906
29.77333010086101
29.77336894353086
29.74778300904357
29.72241317321918
29.69710624702413
29.69713794060837
29.72237942782377
30.16395880123345
30.13138531047134
30.13158966037313
30.16360232851249
29.3522728712325
29.37651155790228
29.37652591242475
29.35225954796108
29.32805508883079
29.30386115672041
29.30387237190252
29.32804290142907
29.42515757396213
29.40080481548695
29.40082035169211
29.42514092431605
29.44954402643923
29.47396196917989
29.47398110411124
29.44952608302316
29.95784951619913
29.98528382836738
29.98536036258864
29.95778067518336
29.9307076165918
29.90382669229487
29.90388397561447
29.9306448919218
29.15931404960864
29.18334858847929
29.18335502292243
29.15930847517963
29.13528570372171
29.11126858565528
29.11127233932657
29.13528105250445
29.62198005800644
29.59709559032877
29.59712165609109
29.62195291002411
29.64693218059187
29.67195150398364
29.67198108989236
29.64690396748717
30.04175549025657
30.01321539700741
30.0133004511635
30.04165773216825
30.07083224665856
30.10055118129454
30.1006972615522
30.07071762370663
29.23149257990364
29.20740747636253
29.20741484053377
29.23148433175085
29.25559415755286
29.27970863250929
29.27971880825194
29.25558489697212
29.54765411415379
29.57232361331813
29.57234822013576
29.54763086623209
29.52303092711444
29.49845525076416
29.49847573791682
29.52300915227898
29.07529979189481
29.02730337407137
29.07532732631861
29.02729605132989
29.12332575685167
29.17146930392039
29.17139717024249
29.12337565942624
29.3160803825662
29.36470372726973
29.31622157521533
29.36453673739314
29.26775393962193
29.21962728380362
29.21953312631695
29.26787114800108
29.4619453555548
29.41314813148773
30.28603596921572
30.2011897082106
30.24865932460362
30.2633540623624
30.22110181884654
30.23474228439903
30.22849401789999
30.18505040784567
30.22904688673644
30.17949350990619
30.22329215331325
30.1805684753791
30.06665397271148
30.10162249635107
30.17307827315823
30.14098746667162
30.22889177978557
30.19660047111738
30.22833748176382
30.20000707941889
30.12911858962063
30.16100911303183
30.17086000398204
30.12168726494107
30.13176752440019
30.17575085190464
30.14474391245442
30.17503743281175
29.51397005853842
30.33381551020453
30.3700061830453
30.24788706493307
30.28154410432727
30.30786142070542
30.39946666583711
30.28973972333661
30.31204189750985
30.34748140064155
30.32381542186413
30.27113789037311
30.30627827190734
30.3343057131583
30.37632803002306
30.35179117255052
30.173482949768
30.21233910508999
29.51319739095675
29.71531464757594
29.76702118401582
29.76892183037613
29.71693365326648
29.41541020077495
29.46456282696163
29.46534878686035
29.41608682832936
29.02740893548072
29.07564699802261
29.07575116288442
29.02744357185377
29.31771664521439
29.36647406453849
29.31820339291887
29.36705175994368
29.7737965024645
29.72111298817715
29.77116970967699
29.71884526282016
29.66427285044402
29.61375876398364
29.66566655636034
29.61496486519551
29.61804182390679
29.66924472881009
29.66730687377507
29.6163792438816
29.4188428826894
29.46856441658888
29.5690638730794
29.51861322130783
29.56368380829782
29.51487805335509
29.56473045930089
29.46626332406499
29.41778537827802
29.4673276472545
29.41687282663091
29.56738667576629
29.51593690624792
29.56595402969161
29.51717247334174
29.3693961316012
29.12391392763359
29.17223204030558
29.12408870041179
29.17247949818117
29.07587147946668
29.02752972250021
29.07601022022144
29.02748360764732
29.12429068445628
29.17309559509608
29.12452358816286
29.17276553047929
29.2691091681094
29.22062212943726
29.26951153476093
29.22094504924398
29.31876734414707
29.36849836238303
29.3677218068037
29.31941987101596
29.26997723210932
29.22174981712372
29.27051549077217
29.22131856977171
29.81768540145422
29.87097896996448
29.86908789973135
29.81612178264253
29.02737920399161
29.07555765379924
29.07548171076496
29.02735396552703
29.31730000528113
29.36598015212091
29.31694641019863
29.36556128543525
29.71395367343683
29.76543111520521
29.7128149993366
29.76410632781356
29.41483240049646
29.46389278781977
29.46332586251419
29.41434294075814
29.81382395191181
29.86633914026597
29.86755951300326
29.81484689238957
29.98245411375646
29.97938833603051
29.92569096009428
29.92332840608421
29.97505906187997
29.91994036326769
29.97697884836325
29.92144065267998
29.02731600241501
29.07536692317484
29.07541838653227
29.02733294291736
29.12376398480997
29.17201984538841
29.1236365519825
29.17183947748305
29.1715658335916
29.12344340877866
29.12353015748556
29.17168886305534
29.36492724526491
29.31641060904727
29.31665142126569
29.36521214187569
29.26876450793348
29.22034530487038
29.26847177690379
29.22011010722259
29.21975327056985
29.26802787000048
29.2682274461036
29.21991369836808
29.76214507514857
29.71112074884632
29.71187762418458
29.76302001071039
29.66309672748596
29.61273754449693
29.66210952779245
29.61187824000714
29.61059087750674
29.66063518759215
29.66129458705109
29.61116719123272
29.56279525245681
29.51254467373483
29.56204593736291
29.41360301843918
29.46247029745733
29.46285433023055
29.41393531676646
29.56092025956701
29.51156166366383
29.51200254543157
29.56142470321101
29.17353395376676
29.17379765315785
29.12482346961161
29.22266385458636
29.27185363114327
29.222819916399
30.14841876183841
29.96891129857266
30.14460207626714
29.91832697809654
29.83074410399151
29.92914210145323
29.81637724114256
30.06670306831229
30.11897836788337
30.02565830785959
30.14501664227965
29.93828560585781
29.99314892220561
29.93851561896197
30.01942857558473
30.11810155954705
30.0464579123506
30.07373264704836
30.09754340846818
30.19092823888975
30.03554555540061
30.00157986290619
30.06465510254623
30.09514746041452
30.0682770990731
30.09676518308251
30.15197730961669
30.12408506366386
29.17312124559486
29.02753025071906
29.9111856729057
29.83613717177594
29.89082408323102
29.82938105327885
29.83429661642235
29.88367036642299
29.73180741802367
29.74179377515663
29.64029589477204
29.63314166381894
29.78081666127979
29.72703151874831
29.77593328505507
29.77948120663646
29.7258994951227
29.72310413330903
29.67334859391484
29.61977427613362
29.67120588253439
29.62156208765225
29.67427976444644
29.62232777204608
29.2217684437824
29.54018461995721
29.43747649767721
29.53501908811576
29.44120275895915
29.14849835986857
29.05134173378106
29.14749569809547
29.0516679835982
29.34044636040472
29.3430766319575
29.24557628653454
29.24382505668983
29.17336824585103
29.12453723803195
29.12471613745172
29.0760247845359
29.02756776727438
29.07612638880058
29.56901802002892
29.57043226684253
29.5197952212139
29.51859350256655
29.46959139219644
29.41889419177968
29.46862592302736
29.41972131114827
29.32080258866435
29.36948336096285
29.37014794700689
29.32023788254391
29.27165825870613
29.22230086776386
29.22210262196719
29.27095538426499
29.27121562016416
30.2706896088821
30.13417442042492
30.18452287493269
30.22142817120083
30.0042335380054
30.04497171894924
30.1087481420609
30.07590270162052
30.115009096819
30.08640294644686
30.13921314257568
30.17008981816804
30.19224766548096
30.22380601416268
30.25516285307278
30.2334053827425
30.28067066875457
30.25887871780147
29.02758272523106
29.07616959890115
29.17347518026608
29.12479133415075
29.47001366729949
29.42007671617173
29.57105060502228
29.52030987789547
29.3210462780876
29.37044016762154
29.32017294501048
29.22224625768627
29.27113572392846
30.32787349328153
29.2621602722181
29.60240793864
29.26283246662152
29.08793616461564
29.42605879666186
29.08786152647181
29.42581566709748
29.14325810302309
29.14210111785778
29.04993800186786
29.04956290675183
29.14210608062094
29.14324117311316
29.04994379337247
29.04916884211343
29.23263726450647
29.31640844233206
29.04917935492629
29.32442683290915
29.04809522466739
29.31668440666092
29.89039444426358
29.88053243071852
29.78893576717822
29.79748413924773
29.88039903728411
29.7974640174982
29.89046877553369
29.6106013172441
29.60473811346101
29.69697857881907
29.70411137569554
29.60471600767419
29.70412466105562
29.61056985338567
30.14514472937686
30.13738740146221
30.21183457621958
30.19403355620575
30.20874528210184
30.14787067928577
30.13567024819944
29.33305687058873
29.23872598187041
29.24058370411587
29.33545240677427
29.24035923403447
29.23858514113397
29.3328667256124
29.23660959023982
29.23464933782059
29.32721200180596
29.32998328245827
29.23465611657811
29.33001786292145
29.23658283002557
29.14531504907093
29.05063748379079
29.1453635763098
29.14436012677439
29.05029671049124
29.14432861414141
29.05030734702769
29.14212127012693
29.14333244961458
29.04996929343233
29.14328949585206
29.04956579681728
29.14211383726535
29.04995454246922
29.32721939905728
29.33016506160203
29.23672614212823
29.23665905082699
29.32721925146809
29.23466599679507
29.3300810535658
29.3352403249194
29.24012915165278
29.24020731588729
29.23848735736046
29.33266455112583
29.33273396726049
29.23843633954245
29.14559146922998
29.05035671389025
29.05071363359883
29.0506684663966
29.14545619879493
29.14442022092183
29.05032759494302
30.02167862337607
29.7803332264446
29.7601818737784
29.78110878851363
30.04982693679111
29.76105026672178
30.02300093812165
29.91303861380378
30.01471160737153
29.75470431074692
29.91330567756772
29.74190427344082
29.75553177578638
30.01590851694945
29.40564672336459
29.68971877576253
29.6720364030293
29.69027935694296
29.41609601565412
29.67276269664242
29.40601767005168
29.04689410751892
29.04773259894528
29.3141219648608
29.04693570265088
29.30856802969302
29.04777148819518
29.31440661229181
29.39527653299073
29.40270391121066
29.6671620399827
29.65572708167176
29.39559369964165
29.66786702518387
29.40308206391924
30.08694530179652
29.99477665262793
30.00960213875424
30.10471335471897
30.00957106355417
29.995164626724
30.08776353492
29.98258965425374
29.9713237233482
30.06083866250554
30.07389649910301
30.07363799902403
29.9711255987639
29.98274365410936
29.79724033116184
29.87963429413658
29.88987326762908
29.89021244008872
29.78875019015215
29.88011083454307
29.7973962244124
29.81559622100833
29.91245798076709
29.91266297873559
29.90120964867616
29.80636188259358
29.80644230194885
29.90117852324843
30.07219296168123
29.9700354486287
29.98165609803673
29.98224538671917
30.06027037406943
30.07308753254483
29.97070772521071
29.81655621484563
29.90114642255099
29.91339975156323
29.81601350098857
29.91301048148754
29.90122274350268
29.80656684149272
30.10496739075206
30.00930917248354
30.00942762099354
29.99534576055169
30.08843416579677
30.08823090734451
29.99540646938972
29.42753431562675
29.52699333710698
29.52217726155601
29.43081306415194
29.52651452921518
29.52192132191948
29.4273037395924
29.51703262070835
29.51228809658582
29.41976293082599
29.42345469773075
29.42349394215605
29.51228166566447
29.51699360124432
29.69667171972036
29.60454766251181
29.70409624133844
29.61064834926912
29.69686886207554
29.60465902906164
29.70412992971132
29.71871997530967
29.6220383761922
29.62223459853639
29.61652530169179
29.71136524849161
29.71146649449414
29.61642037330079
29.42365339634494
29.5171763453651
29.51220486881823
29.51709895787329
29.41976033633193
29.42356397759671
29.51225892372075
29.61697439215424
29.71186112195165
29.71971026120175
29.71913558639201
29.62261496270716
29.6167178625079
29.71164376769438
29.43054094662137
29.52601450310399
29.52618490002518
29.52173653342009
29.42705491669551
29.42714077699613
29.5216379241956
29.14212341967776
29.1433823734852
29.04998656454569
29.14343201488809
29.04956751509537
29.14211293400555