/*--------------------------------*- C++ -*----------------------------------*\
  =========                 |
  \\      /  F ield         | OpenFOAM: The Open Source CFD Toolbox
   \\    /   O peration     | Website:  https://openfoam.org
    \\  /    A nd           | Version:  7
     \\/     M anipulation  |
\*---------------------------------------------------------------------------*/
FoamFile
{
    version     2.0;
    format      ascii;
    class       volVectorField;
    location    "0";
    object      U;
}
// * * * * * * * * * * * * * * * * * * * * * * * * * * * * * * * * * * * * * //

dimensions      [0 1 -1 0 0 0 0];

internalField   nonuniform List<vector> 
12677
(
(1.046302092209145 -0.02694729629668788 0.004977532058912684)
(1.138787922411191 -0.004692937720325825 -6.53423558333354e-06)
(1.101734766842106 -0.004153045417026324 0.0002646815756892367)
(1.12834789736437 -0.100716294192003 0.0005511556445354933)
(1.13323014090805 -0.08522040132132808 0.000336380545370874)
(1.183439513885159 -0.2740756492187025 0.004167948602689666)
(1.220492930175973 -0.1012906683342235 -0.001822909480803542)
(1.221475883101151 -0.1161561855377216 -0.01352243997866128)
(1.205588377328243 -0.2499103733583576 -0.0006532405464189173)
(1.182924804774506 -0.02633424448385023 -0.005786980548893905)
(1.172094426339425 -0.003140910106895417 -9.10615110251981e-05)
(1.179682722850357 -0.02347017080873812 -0.0008002304285968831)
(1.176279635239879 -0.01033275415345893 -0.00241784384947539)
(1.188421255750986 -0.03641669200915847 -0.007571663005857198)
(1.210309023004442 -0.07588221215312918 -0.001668776119319613)
(1.20382647938876 -0.06500927593933566 -0.01121115816152168)
(1.185021341027777 -0.03229449113102165 -0.001054096099893506)
(1.326240826275852 -0.09767147277230206 -0.02029425236590066)
(1.262580722339963 -0.05056944628438129 -0.001576682671627414)
(1.265915447003309 -0.05500878277703497 -0.01338376076004739)
(1.321381769800765 -0.09613390538192239 -0.002348617912525429)
(1.182905170778178 -0.00461387345455208 -0.001849845043664443)
(1.179432880178967 -0.0006673798183403437 -2.506009634588563e-05)
(1.181915208553631 -0.004513254290800038 -0.0002522601367528523)
(1.180381196171808 -0.0009450212482600439 -0.0002600216854030049)
(1.220777941825141 -0.0275116484963059 -0.008142671904744341)
(1.248819787777429 -0.04203219590565745 -0.001459059133375385)
(1.251404010610519 -0.04216248460136587 -0.01192333338304963)
(1.219139387901667 -0.0250357886723591 -0.001060522718112271)
(1.355153186552873 -0.1415078111044873 -0.02270025271318842)
(1.395561613602041 -0.3551677062325416 -0.02451043024284989)
(1.348265894006831 -0.1255494278804609 -0.002421460117423859)
(1.358958469391462 -0.1517815618037091 -0.03085774038684919)
(1.373997470712066 -0.1905648132672803 -0.05421439478219679)
(1.184657001649422 -0.006897186548312531 -0.002395216002829981)
(1.191643228163386 -0.01129806801565288 -0.0005821159156037093)
(1.19290457036316 -0.01145543909671044 -0.004230019231577546)
(1.183594775578275 -0.006783892051796117 -0.0003269352642590391)
(1.213277865817086 -0.02188435766140961 -0.007280627074159813)
(1.195535187840093 -0.01440856239439822 -0.0006722975348574347)
(1.19688657900096 -0.01464302194333188 -0.004904374533522155)
(1.212179478275114 -0.02165439028695566 -0.0009807792526766012)
(1.290083047358818 -0.005160535707118996 -0.008451953220889027)
(1.268943893301771 -0.01439818434660595 -0.000980301867196438)
(1.28019578673692 -0.004563935018342595 -0.007644192092236643)
(1.299117110288509 -0.01968506252359287 -0.001249861659955714)
(1.180799644400775 -8.451430704226336e-05 -1.120482814621711e-05)
(1.181448941419819 -0.0005930829320552432 -6.595675277673671e-05)
(1.241602899182527 -0.003204117319017111 -0.003765065860352837)
(1.260834833944767 -0.01303739125588164 -0.0009238772469017064)
(1.262603276843526 -0.003738186459267807 -0.006610167388657648)
(1.240746079184712 -0.009949790343178498 -0.0007401300837708057)
(1.746413564764203 -0.3722219598647762 -0.195801775427199)
(1.597901995546484 -0.1205577020659341 -0.02743939964272843)
(1.52889006120333 -0.09070096030989061 -0.002710458287256811)
(1.782751488121016 -0.1567402498993724 -0.1477792947096757)
(1.849916423545881 -0.1621444462625639 -0.1904279501215011)
(1.194763214948025 -0.003487351362254902 -0.0003306006385997237)
(1.189603374670812 -0.002823086035204689 -0.0002568318633249857)
(1.196828880834321 -0.004013409689167648 -0.0003559023327669382)
(1.204155770307791 -0.004854794807910181 -0.0004407045145988676)
(1.31408495984438 -0.007219650106668725 -0.006835049076548363)
(1.361259543793019 -0.03309404798593349 -0.001768381268494977)
(1.345769552722587 -0.009385894703059405 -0.008186153195888217)
(1.311730901457373 -0.02220633894007275 -0.001332574315468164)
(1.183845421458184 -0.001466807598616961 -0.0001488684764560094)
(1.181862307589651 -0.000976187590908561 -8.756273417811686e-05)
(1.235991468429998 -0.002874573072524294 -0.003523695401323143)
(1.221311820623661 -0.007619255650662206 -0.0006036802045535963)
(1.226497888419765 -0.002201681057941586 -0.004458573953454184)
(1.235222038732047 -0.009043914913189968 -0.0006952720260945343)
(1.492624678035863 -0.02270465130828635 -0.01374020775216616)
(1.383362700327339 -0.03890337398972694 -0.00188418783352481)
(1.388542550006791 -0.01281789729306262 -0.009914074377382478)
(1.479965129045543 -0.06983533182996512 -0.002601042046864661)
(1.705598679458782 -0.1143563927792638 -0.1155324162293043)
(1.655056985244905 -0.1062684132627058 -0.08375865692718154)
(1.184742179956292 -0.001837076058117121 -0.0001689851938390935)
(1.188178882320182 -0.002394302253403004 -0.0002346324192697972)
(1.21724130237721 -0.006631719373389343 -0.000568718666509314)
(1.207055181541075 -0.005534429050738377 -0.0004699463853085924)
(1.172727128907742 -0.03159215683291152 -0.003950690051213825)
(1.138876829857653 -0.03435744408856587 -8.306080484945834e-06)
(1.165183521074286 -0.003777210959745042 -7.833374269628008e-05)
(1.138888711122231 -0.004939126476643653 -5.038204859260057e-06)
(1.138796990762301 -0.02522894052674854 7.721087164406056e-05)
(1.170650352766579 -0.02861170309882524 -0.0005723922776528314)
(1.158948288646903 -0.01401381094246463 -0.001041938777453193)
(1.081570831658016 -0.1293219243439922 0.01171607290576626)
(1.058822248827665 -0.04813973118574134 0.003161252187181977)
(1.126355666447284 -0.04598675211029125 0.00155042066278977)
(1.071015735491772 -0.01962853715442189 0.001694291842176545)
(1.062251775601687 -0.04179168494583105 0.002784269192685443)
(1.145461441299168 -0.2288968347650192 0.009975131293824734)
(1.096600727053604 -0.1473850183085849 0.001611399226806021)
(1.125063026639614 -0.1036868185097218 0.004879800078565625)
(1.191387243205461 -0.10984560352029 -0.000951406893870883)
(1.091288335972244 -0.1471242058871972 0.01241360618404894)
(1.16297877727303 -0.1186371642331783 -0.0003038969164968232)
(1.160719685454207 -0.218349389951258 0.0006955564645788439)
(1.176222885733752 -0.04314953181099015 -0.004986241783473285)
(1.138601858465384 -0.04548295179959879 2.327245221602803e-05)
(1.149370752709423 -0.07660851832167426 0.0001091068937698776)
(1.188219178256418 -0.08567453486546089 -0.001006109555798669)
(1.137945251450908 -0.04767670264910888 0.0005892215479883132)
(1.184559859753503 -0.07382004777529629 -0.00647888204193312)
(1.174283832085688 -0.03900253835407511 -0.0007298649603638683)
(1.291789735921341 -0.1978435853767517 -0.02010855367881894)
(1.215885788824156 -0.2121788777054061 -0.007301022326838859)
(1.248645733460724 -0.3388860793985863 -0.01022625678311363)
(1.195660988702238 -0.2629007809184018 1.393310932711511e-05)
(1.286587345093808 -0.2223014333795171 -0.02589210850244052)
(1.22244190418274 -0.1988995105777485 -0.007009179987125264)
(1.268273871480229 -0.3103068251868635 -0.01239634007920508)
(1.275955943312254 -0.1196974213338882 -0.0122178210365209)
(1.251660706236046 -0.06738128851532438 -0.001719751408112785)
(1.220769386955081 -0.1029346905631461 -0.005851262292595452)
(1.228262995398877 -0.1370059231911278 -0.001818213501157998)
(1.228052451798398 -0.1393841934532192 -0.005814466380782389)
(1.252905136887192 -0.08225942702930912 -0.0106184709400063)
(1.294995290195412 -0.1202139195524249 -0.002198334011575701)
(1.293687540830408 -0.1831291695117391 -0.01233804862766084)
(1.203075826614494 -0.2545417995749392 -0.001199513029482045)
(1.227052873573208 -0.1867823224176543 -0.001496757477031282)
(1.314930133492383 -0.3224384053565829 -0.001678679100970845)
(1.225955853470041 -0.1901291027978499 -0.004592281396420723)
(1.279291381766958 -0.2898104047942446 -0.008121554139781977)
(1.311196965373981 -0.152771578458359 -0.002089062047470244)
(1.179466585225725 -0.006603411821485407 -0.001239832662989613)
(1.177891149740579 -0.0009242719849923805 -3.169212274645273e-05)
(1.173286098723825 -0.009248179590951229 -0.0003284890231329802)
(1.172568813928514 -0.003089351350105272 -0.0003094383780853935)
(1.173802750148357 -0.009413647540489288 -0.00099729585125557)
(1.178861548720218 -0.006483694050675668 -0.0004115973767894128)
(1.177927630491787 -0.002148926263534304 -0.0003962301910089123)
(1.182625186191843 -0.01143951657479517 -0.002103395358372795)
(1.180237007659891 -0.02389871245522273 -0.002411538843409914)
(1.175811843592905 -0.01594262392930523 -0.0005603219227723953)
(1.186815468446743 -0.01667130470378437 -0.001006286274583365)
(1.17633643719338 -0.01622482442114379 -0.001691226293389885)
(1.187569084593371 -0.01695601809682151 -0.003040098033595127)
(1.181961194228613 -0.01125197636503211 -0.0006954593752424028)
(1.216486003000023 -0.04312691297356668 -0.007010180968387363)
(1.240208358308646 -0.05604389239665575 -0.001593571426796554)
(1.210785793741231 -0.07699604614172863 -0.005342307119438436)
(1.200585502527583 -0.05743193964640585 -0.001460836252501)
(1.232650803804887 -0.05880536868322298 -0.008780988225531488)
(1.201035564672259 -0.05815589109111582 -0.00463490122096549)
(1.212847058010602 -0.03523504156513493 -0.001081735569862904)
(1.204007547186482 -0.03196192413683905 -0.005395249522723317)
(1.18560490391551 -0.03292765130044664 -0.003170548228467685)
(1.192058847354774 -0.04300544491454408 -0.001314504604919411)
(1.193605348208648 -0.02316501986956347 -0.001366490643955709)
(1.192548295660376 -0.04400114032811861 -0.003958568254850778)
(1.194562368700978 -0.02357957659618438 -0.004098240585388732)
(1.202263577663867 -0.03140356146103685 -0.001858692936062162)
(1.290324864561881 -0.03843292823282938 -0.007449520433975695)
(1.267052520875934 -0.0247110886373463 -0.001106867383793386)
(1.263085550272679 -0.05013060906377187 -0.004560100417825582)
(1.27887797075485 -0.06132309443004376 -0.00185004376415528)
(1.271155084669122 -0.03136888637724262 -0.006317189554482712)
(1.279415544309228 -0.06089603946142395 -0.005847006029003414)
(1.29610015668175 -0.03341324637534736 -0.001405785169249471)
(1.314206845926742 -0.04847783279743984 -0.008579968422707765)
(1.322093879399718 -0.09600529980295597 -0.007688085423967882)
(1.298335186027195 -0.07614647110922826 -0.001969263952440787)
(1.354577208758613 -0.05552985735154705 -0.001993464062550641)
(1.299029285341719 -0.07585824964209613 -0.005687597499280121)
(1.34443711318213 -0.06251289687995581 -0.0103852148339852)
(1.308159367737276 -0.03791700480054903 -0.001510061967324094)
(1.181070711811643 -0.001219775191678086 -0.0003487779251529048)
(1.180553780318454 -0.0001559035495954928 -1.423115780167316e-05)
(1.179731901592221 -0.001944005697221929 -0.0001082414038552845)
(1.179586035428146 -0.0006384599048513928 -5.398313569315593e-05)
(1.179905908218566 -0.001976477375883284 -0.000358514521095507)
(1.180915730110503 -0.001208460521025307 -0.0001182556340091581)
(1.180659874158349 -0.000390999633786773 -0.0001031488494908993)
(1.181959088763251 -0.002158334662226876 -0.0005660986651867835)
(1.182081786030641 -0.004547055754020439 -0.0007599305220818806)
(1.180713279396114 -0.003797976980321947 -0.0001790464526158134)
(1.183087709910189 -0.00287511076126214 -0.0002674110358877466)
(1.180873199462121 -0.003830755695292147 -0.0005561125330258024)
(1.183260922140511 -0.002894159369139942 -0.0007896233039480211)
(1.181794613722307 -0.002144951689435911 -0.0001913927151596627)
(1.24246897315345 -0.02171407952617917 -0.004785810689639599)
(1.259170168899504 -0.02224803801406951 -0.001035783914286464)
(1.24923349527821 -0.04158372587636954 -0.004530831355218283)
(1.237192203942522 -0.03551654741549657 -0.001252482020231139)
(1.255458947184002 -0.02585673098577141 -0.005565199535028731)
(1.237579311521751 -0.03509561219277332 -0.003634301747165582)
(1.239531324177703 -0.0171554511942326 -0.0008267711870463618)
(1.231610469732347 -0.01827217685740911 -0.004164613840963375)
(1.219369739121304 -0.0251454756926279 -0.002927363186926529)
(1.227381900920726 -0.03008866162198428 -0.001145441417456292)
(1.221673900096339 -0.01541839804318652 -0.001252770809904398)
(1.2276384158835 -0.02965129606197996 -0.003525297675935609)
(1.222522917994042 -0.01552598383851463 -0.003507897075728707)
(1.233955987176062 -0.01558712911414627 -0.0007595515602412252)
(1.358549152080185 -0.420769456187017 -0.04679086143794832)
(1.49191740002663 -0.48366942448643 -0.09694311343114051)
(1.520199578777511 -0.06081698805565921 -0.1145008117186876)
(1.679778020486124 -0.1149120827072156 -0.1679133317968474)
(1.590881675642347 -0.07967963325304775 -0.03971100168340948)
(1.616020911635734 -0.08420219632404373 -0.06126800661753991)
(1.497891443064162 -0.1861009093759494 -0.01652658861917895)
(1.401718163146778 -0.2369170429290758 -0.002852705692646514)
(1.402717234546383 -0.2387106498048131 -0.008408001329576809)
(1.485490919215433 -0.2233648068372446 -0.008791754094226108)
(1.434707127338767 -0.1200267720812833 -0.01483981589613708)
(1.349193109638785 -0.1258925508842803 -0.007024036852931323)
(1.374869392305732 -0.06556700493085203 -0.002138796191305841)
(1.377271085687611 -0.168807813628727 -0.002939042941555788)
(1.383638176010244 -0.08454126951392468 -0.01213757291654398)
(1.378076740137961 -0.169651612844541 -0.01026841910043424)
(1.458254308103226 -0.1128661918426117 -0.002850735941291847)
(1.529099135970395 -0.3126722776953735 -0.08590591574555265)
(1.380894598407449 -0.3701126909256462 -0.04996322302490168)
(1.518135707260986 -0.3759952813747329 -0.09563569649876014)
(1.395679296030123 -0.3437073195265235 -0.04839239323993907)
(1.5226727793314 -0.2618448966957594 -0.07362970228181473)
(1.40439264682665 -0.2894770877648554 -0.03612395162013174)
(1.401850262156031 -0.3068627319570832 -0.04317066117874416)
(1.513939616129963 -0.2315026535168513 -0.05763206515168252)
(1.190111803112505 -0.006015523961050782 -0.001529933874972656)
(1.19329204127122 -0.006992534805670539 -0.0006130572962391891)
(1.191854108023639 -0.01135506150223291 -0.001753932331889231)
(1.188448415996335 -0.01023023801846331 -0.0004894732478673827)
(1.188643971634578 -0.0102948516323466 -0.001479933451335058)
(1.193510435162555 -0.007030567883127394 -0.001807924904439387)
(1.189907578106302 -0.005980981394512655 -0.0005189085898572178)
(1.187296374914347 -0.00480294835700356 -0.001271705636590027)
(1.183772506766682 -0.006828496803776281 -0.0009888067794808248)
(1.184846632845442 -0.003926312937692108 -0.0003469937574677876)
(1.185743203189985 -0.007680379191219993 -0.0004099303187071359)
(1.18502961882853 -0.003950315865158286 -0.001023432438222932)
(1.185929195583717 -0.007718114708378274 -0.001234037984752609)
(1.187103558251327 -0.004776608884011433 -0.0004310666065438509)
(1.202401523827683 -0.009799094126011373 -0.002418701331948296)
(1.197351594669319 -0.008467126714922319 -0.0007126955421481912)
(1.195760398541931 -0.01449485100589735 -0.002033373924145274)
(1.200022669354057 -0.01576712408890465 -0.0007793033265080663)
(1.19758562458383 -0.008513600756637011 -0.002100722733240423)
(1.200268297931179 -0.0158434898787021 -0.002350548641999648)
(1.202149439830429 -0.009749364952297793 -0.0008205747726974397)
(1.208125062716252 -0.01172131686723888 -0.002750704469608895)
(1.212401509714365 -0.02176445223630516 -0.002941853416810787)
(1.2144706953703 -0.01324334442173775 -0.001061584962157619)
(1.205568632396206 -0.01992782714270265 -0.0008826318452061498)
(1.214828016746099 -0.01332787132879257 -0.003099709356681673)
(1.205805464874237 -0.02000921644937572 -0.002672225808223972)
(1.207851758593409 -0.01166464548273285 -0.0009346721507594608)
(1.269107670158362 -0.0141461606964827 -0.002655688638795217)
(1.277927537731186 -0.01587202344288413 -0.001068171845397925)
(1.278108178395892 -0.01559642598492756 -0.002969603638516426)
(1.299338028857191 -0.019348977978182 -0.003471717635195001)
(1.287932376334792 -0.01767676522160791 -0.001139661127196943)
(1.288139613858516 -0.01737176260133906 -0.003071597828967519)
(1.180878619154117 -0.000271912652595446 -3.063089187501904e-05)
(1.180839795253005 -8.18432097155566e-05 -2.468891897206706e-05)
(1.180921067341695 -0.0002755091118305094 -9.342914567575686e-05)
(1.181490099601429 -0.0006077320518464049 -0.0001993576494019068)
(1.181137552971485 -0.0005900775178878576 -4.918562329792529e-05)
(1.181176123913363 -0.0005976756430485981 -0.0001550711765697122)
(1.260979174752547 -0.01280249481707284 -0.002574429927057659)
(1.253498328121169 -0.01191093759894589 -0.000852451058111388)
(1.253636433542078 -0.01169456762106589 -0.002322945547984784)
(1.240865059157233 -0.009777272331633252 -0.002027947313395824)
(1.246823907651975 -0.01085622931135635 -0.0008014551181964781)
(1.246949936570646 -0.01066223674769029 -0.002237584901441686)
(1.755550030416276 -0.6008519688555719 -0.2084252751491951)
(1.530119361793166 -0.09020157525408751 -0.006509873040962639)
(1.591362504634601 -0.1225460540051817 -0.003374850497935709)
(1.593284446275271 -0.1222939477203241 -0.009681156602384782)
(1.194819827856402 -0.00350255385937759 -0.0009922785560263459)
(1.192907840761151 -0.003349935553738511 -0.0003046437968719553)
(1.192961854810606 -0.003370868216001958 -0.0009163409108465507)
(1.189654061106414 -0.002840324284004583 -0.0007715633054283154)
(1.191183051007974 -0.002946476630574753 -0.0002810809286679185)
(1.191235759110605 -0.002958294909782822 -0.000842764649280124)
(1.196886886490115 -0.004036322108454061 -0.001069302399060655)
(1.199087457479067 -0.004166936204365357 -0.0003836686146037687)
(1.199148163100229 -0.004183699678274583 -0.001150670679731311)
(1.204221401657537 -0.004874682550790533 -0.001322281516618864)
(1.201536244673763 -0.004678323174301704 -0.0004107787288552249)
(1.201598569600877 -0.004704934137100483 -0.001234981497435856)
(1.361620029274484 -0.03258302193495847 -0.004906058154434654)
(1.342388230513782 -0.02874564765883736 -0.001582473354640906)
(1.342730940351289 -0.0282962139859677 -0.004191321483934092)
(1.311991060929445 -0.02184554796135244 -0.003560974274923914)
(1.326027408560064 -0.02506922234733948 -0.001475539596741828)
(1.326316800418437 -0.02466450561709987 -0.004090710213467456)
(1.183890452754158 -0.0014720388911664 -0.0004458907537940621)
(1.183092009947135 -0.001366504594892498 -0.0001279762731867783)
(1.183135936435185 -0.001376886019655643 -0.0003845505251703377)
(1.181908298622472 -0.0009828538629307756 -0.0002625558416910269)
(1.182428566066959 -0.001075880542842083 -0.0001084086049189906)
(1.18247268299171 -0.001077791792296975 -0.0003236363806042132)
(1.221375494529099 -0.007621480995033917 -0.001812605947971746)
(1.225829745922442 -0.00786971902448619 -0.0006247470297269951)
(1.225881099423978 -0.007878700698043004 -0.00186685843862362)
(1.235332306381814 -0.008901427190473529 -0.001956114533245524)
(1.23035076125612 -0.00812567789655085 -0.000641348686856259)
(1.230437078607454 -0.008051921834704597 -0.001789138887139878)
(1.383803595105694 -0.03836343853317996 -0.00491047226451368)
(1.40954065011204 -0.04610235410824658 -0.002130874362221193)
(1.410017515992545 -0.04547592791043654 -0.005918267455620472)
(1.480661161484706 -0.06911180972876201 -0.007282477190671877)
(1.441154107447071 -0.05622285770202356 -0.002258749205938745)
(1.441777581730739 -0.05557389776962226 -0.005744905545884776)
(1.18478781549543 -0.001849013712475967 -0.0005070564419404208)
(1.185772728894009 -0.0019432616868532 -0.0001907387824832414)
(1.185819707415085 -0.00195000212873837 -0.0005710592779485845)
(1.188228560862154 -0.002404386082417543 -0.000703895678905686)
(1.186922018658824 -0.002280905304568483 -0.000211709812650191)
(1.186969845467304 -0.002296225229206464 -0.000636666963711655)
(1.217319897729565 -0.006653151438458578 -0.001705409020696421)
(1.213614539524495 -0.006387377979821726 -0.0005336292010576378)
(1.213687469115957 -0.006418030215992902 -0.001602334723119084)
(1.207122386233002 -0.005562449707777297 -0.001410817745171219)
(1.210210956797368 -0.005733454095624112 -0.0005020324125730697)
(1.210281597585747 -0.005754023585754198 -0.001504537742206206)
(1.329711276332961 -0.1042440685291198 -0.0272666180601065)
(1.279011829590245 -0.06708131700070961 -0.0328257063245696)
(1.345795549488314 -0.1274227846452348 -0.04907378694947996)
(1.268113439000772 -0.05746909393610684 -0.01799487879474208)
(1.183579031541494 -0.004792227564676754 -0.002415576028009546)
(1.183993841829281 -0.001148214435500944 -0.0005947104101670327)
(1.186728122609924 -0.005158830866615114 -0.004270925110345982)
(1.181016479575081 -0.0009963529931378411 -0.0003232817883522663)
(1.185356707971564 -0.007062789026351335 -0.003130973840492302)
(1.19402485973286 -0.01174068665269275 -0.008310472125515816)
(1.19372766125893 -0.0118400662510716 -0.005539494261628238)
(1.188627482726203 -0.007758677009547913 -0.005549394378589525)
(1.222058131495492 -0.02834323949709942 -0.01088249622233509)
(1.262514998815842 -0.05020581538664656 -0.02891652129706388)
(1.253275942053609 -0.04398400399233426 -0.01591992826308402)
(1.228268253808147 -0.03184789390172817 -0.01959797167367029)
(1.214409576728749 -0.02263965343981562 -0.009633569982031054)
(1.201942221257648 -0.01662161920229805 -0.01143452294255477)
(1.213016101755178 -0.02298468841049718 -0.01510761013433782)
(1.197769388349942 -0.01504409081654719 -0.00642448150037425)
(1.316331369167825 -0.04922877432306562 -0.01384042589151471)
(1.303176212157422 -0.08424062980224914 -0.01737456216262537)
(1.351393307446975 -0.06455238525813291 -0.02417139795373508)
(1.323383208977971 -0.09593602730134719 -0.01410135665396233)
(1.31963047566516 -0.05070277773750469 -0.02026599368124206)
(1.300658432372752 -0.08259509782589802 -0.01110995525595307)
(1.347092099493774 -0.0624933667017396 -0.01661105126709285)
(1.29743287912724 -0.01315701335577974 -0.01324801674757402)
(1.278639769210111 -0.010584889784044 -0.01568495509438628)
(1.276459102074326 -0.01071655352985899 -0.01129146781136576)
(1.300201257702893 -0.01302813686012224 -0.01836649196068019)
(1.291933539173573 -0.03824022401352941 -0.01195207248793302)
(1.282363105158361 -0.06181645395866939 -0.01544125899416434)
(1.274547742574609 -0.03238570919689564 -0.01489862501164373)
(1.264173402878143 -0.05419991023425763 -0.008645255071572698)
(1.272487135135779 -0.03167696467749259 -0.01021139799484345)
(1.294489130930678 -0.03912194086282035 -0.01733023426881337)
(1.280359337337315 -0.06108451413650078 -0.01059839835697935)
(1.324167614564066 -0.01685325665448249 -0.0157011008904691)
(1.364387750652645 -0.02202641127196461 -0.02642048831819925)
(1.32783671098174 -0.01680222442835112 -0.02179067490489439)
(1.359278355171181 -0.02195780038485884 -0.01905393286274892)
(1.182284827590122 -0.002103540798980666 -0.0009652976257534569)
(1.184122938263698 -0.002863442363393873 -0.001921926487132423)
(1.182404772523847 -0.004621800915952926 -0.001310291068498947)
(1.181636618237734 -0.003819907489544482 -0.001316497808827095)
(1.181158740411273 -0.00380856503302458 -0.0009491364073984225)
(1.18359950995775 -0.002847175356361703 -0.00135120032114935)
(1.182792138946767 -0.002109384752797424 -0.001365014749882395)
(1.181407616001537 -0.001169322199402165 -0.0005875770359002756)
(1.18077933126044 -0.001718703887794689 -0.0008026925461724128)
(1.179890518430136 -0.0009804913963118989 -0.0001488151038341404)
(1.181482759284927 -0.0004408517391846137 -0.0002746693528648869)
(1.180287989609173 -0.001800161844196982 -0.000612227456022099)
(1.181912114541791 -0.001156967924288776 -0.0008203249175498181)
(1.180983784880465 -0.0004430590440215433 -0.0001914938190627784)
(1.232397616660499 -0.01810527327454806 -0.006846185431947391)
(1.224208681202963 -0.01591167784047009 -0.008716209680559393)
(1.229315803233486 -0.0301048364247882 -0.009281499266584522)
(1.219852756888158 -0.02718059231827013 -0.005302322504631958)
(1.23360538161273 -0.01838275772229912 -0.009930935731463071)
(1.228230397467293 -0.02985050242653412 -0.006307405628594964)
(1.223178114444589 -0.01565081956092276 -0.005973450755307063)
(1.245763378717425 -0.007350912233781537 -0.008471464149941038)
(1.261337193412224 -0.008602001377572365 -0.01354932771878067)
(1.259570801600119 -0.0087463687160266 -0.009761205638266008)
(1.247231461311652 -0.007225381980190345 -0.01177725554526052)
(1.234306304480773 -0.006141405760784968 -0.007421392764258058)
(1.225774750811445 -0.005148408863467065 -0.009029972592878835)
(1.235542279583945 -0.006024333892714671 -0.01029863773326969)
(1.224718520989251 -0.005244130882876141 -0.006518683349655867)
(1.24340590917815 -0.02184867935082438 -0.007762329950460497)
(1.239662844022292 -0.03820572253425283 -0.0104183468748307)
(1.258218071836735 -0.0260979412068705 -0.01297115281061685)
(1.249961252650683 -0.04181626147723371 -0.008142695560282924)
(1.256530939701139 -0.02564961172835761 -0.008956508213627479)
(1.244831834176554 -0.02224751505287852 -0.0113084987029808)
(1.238376007972736 -0.03774087988589638 -0.006772288017999064)
(1.438714418129594 -0.1208436979964325 -0.02396916210390083)
(1.382534383809942 -0.1733548883005687 -0.02620617530327955)
(1.392904676320408 -0.09022957208286747 -0.02903255407930982)
(1.351726578924771 -0.1377597699733326 -0.0143764607178169)
(1.387178911890701 -0.08644468194337013 -0.01961260462327078)
(1.445704297170443 -0.12741933205553 -0.0355257551336817)
(1.379665870591515 -0.1685358728113792 -0.01888321319761001)
(1.478823822133729 -0.04566415108395159 -0.03046538475084132)
(1.415410882502075 -0.03120288382009712 -0.03292593584215481)
(1.407711975300766 -0.03067025576810487 -0.02359342989489115)
(1.491672007402369 -0.04759221340090641 -0.04312672021428286)
(1.466979500626877 -0.154059756870968 -0.06125118553909134)
(1.364039227290013 -0.1591638864794091 -0.0383210104445696)
(1.385377228402004 -0.1878981945921646 -0.03501459070616056)
(1.400547689993241 -0.09682392417524577 -0.03908182803249437)
(1.388947713627976 -0.1982761635622054 -0.04285410859637508)
(1.410461591835355 -0.1048718114091061 -0.04976303392905241)
(1.455044065316424 -0.139216462674732 -0.04802419704674081)
(1.572803785276895 -0.0708020484714765 -0.09722165525620875)
(1.485119563144815 -0.04921092612524831 -0.08974370169297852)
(1.613121578440827 -0.0903911681310625 -0.1222757165099324)
(1.460582684864728 -0.04201856586048498 -0.07161417182941578)
(1.480909021260787 -0.1776257590447515 -0.07462679737713791)
(1.368877879081773 -0.1777371658635238 -0.046606984542445)
(1.390907848561774 -0.2428307879208318 -0.05693179299275528)
(1.436111029079748 -0.1331833006129289 -0.07461493720220559)
(1.492193633323769 -0.2079311625966826 -0.08873717651061146)
(1.391135207227157 -0.2239868514316845 -0.05075805731794134)
(1.422477347679479 -0.1176872938242817 -0.06145498901962904)
(1.536630120156398 -0.05958483590121771 -0.07650072754962842)
(1.426387395946683 -0.03338820810092864 -0.04422986970416502)
(1.441152611651959 -0.03673446004556644 -0.05696132635486797)
(1.510922432406305 -0.05278208051563146 -0.05858730882754964)
(1.18767311376245 -0.00471517563422682 -0.00217686215656627)
(1.185934563148627 -0.003900963709891311 -0.002497797728343373)
(1.186857354201851 -0.007781698482230122 -0.002979576452635459)
(1.184128283701129 -0.006843697347491412 -0.001694003939413893)
(1.185387395149971 -0.003872616076576109 -0.001752668144088651)
(1.18824887061853 -0.004747941988729955 -0.003102453749815297)
(1.186300737944505 -0.007768222714384288 -0.002111764722688239)
(1.190511041970197 -0.005897697956912592 -0.002620203759632159)
(1.189625677853908 -0.01040361583821411 -0.003576279933218664)
(1.194588923196427 -0.006952852379486171 -0.004415526270510481)
(1.19227508019884 -0.01141932183686992 -0.002998216472261865)
(1.191121422468005 -0.005944293206321273 -0.003737093684563199)
(1.189036396952086 -0.01031915906360286 -0.002530137577075725)
(1.193936792896578 -0.00690092789407792 -0.003095907158606468)
(1.208627645868716 -0.01148618046195115 -0.00472382163648012)
(1.216218007118665 -0.01329863906578904 -0.007693042454085995)
(1.206996437207108 -0.02008754314891701 -0.006433039424392042)
(1.212521917283179 -0.02174480228435709 -0.005071636399962199)
(1.215333273736286 -0.01314559114333783 -0.005332361961554155)
(1.209439050062062 -0.01159010571834364 -0.006768504229661063)
(1.206249475565429 -0.01993649642288474 -0.004554622871828403)
(1.199579028294349 -0.002714327842855279 -0.005276015631626574)
(1.204605913466936 -0.003163953674886477 -0.006086043460509063)
(1.209711935170426 -0.003836599673602406 -0.005071912888303554)
(1.217530179579473 -0.004346468392157563 -0.007938857837248115)
(1.216609307648299 -0.004442420505531181 -0.005762605500058791)
(1.210543490734688 -0.003743465852323318 -0.006966731781664448)
(1.202889083330249 -0.009613600978175022 -0.004146225076000785)
(1.201481262362849 -0.01597306447756255 -0.005655742122399189)
(1.198743001011023 -0.008415875180407137 -0.005138623855051306)
(1.196213054365777 -0.01452485933474848 -0.003472712264888784)
(1.198042452375694 -0.008346974421419155 -0.003599850720026891)
(1.203644149199429 -0.009691223259601183 -0.005923333518885412)
(1.200757852634102 -0.01590677558070914 -0.004011691095833822)