/*--------------------------------*- C++ -*----------------------------------*\
  =========                 |
  \\      /  F ield         | OpenFOAM: The Open Source CFD Toolbox
   \\    /   O peration     | Website:  https://openfoam.org
    \\  /    A nd           | Version:  7
     \\/     M anipulation  |
\*---------------------------------------------------------------------------*/
FoamFile
{
    version     2.0;
    format      ascii;
    class       volVectorField;
    location    "0";
    object      grad(Phi);
}
// * * * * * * * * * * * * * * * * * * * * * * * * * * * * * * * * * * * * * //

dimensions      [0 1 -1 0 0 0 0];

internalField   nonuniform List<vector> 
12693
(
(-1.000685137596798 2.292639525233843e-06 3.862839124146042e-05)
(-1.001302193529461 6.9296243316248e-07 4.990364023636681e-05)
(-1.000790307198198 1.258692880136563e-06 4.79663732761547e-05)
(-1.000513402664502 2.359749219122539e-06 4.71022515860031e-05)
(-1.009527518919877 5.084661028623734e-06 0.000415245380568105)
(-1.004836918897072 6.764941814938068e-06 0.0003226250463980217)
(-1.00289713233491 2.879843339739332e-06 0.0001588671322274277)
(-1.001420665845049 8.193528951480038e-07 5.686894816924071e-05)
(-1.000421296800831 1.229900650682342e-06 3.3507665925839e-05)
(-1.000357587800623 7.676681469990473e-07 2.37679764649035e-05)
(-1.00031075741888 4.973702804313118e-07 1.697918687700356e-05)
(-1.000276196573058 3.224656576803891e-07 1.212104791327391e-05)
(-1.000250787225869 2.062820229160773e-07 8.572788586720665e-06)
(-1.000232420777354 1.291520926102396e-07 5.915053944873374e-06)
(-1.000219682260415 7.922941905114317e-08 3.853330570015847e-06)
(-1.000211648335088 4.931746899749506e-08 2.171629748055505e-06)
(-1.000207762334108 3.529879973787148e-08 4.675131830785294e-07)
(-1.041982362938582 0.003524429236251555 0.04712244504314836)
(-1.010424756470308 5.855810904645223e-06 0.0004523387836890746)
(-1.097659414079894 0.01088691103197356 0.08386207180241347)
(-1.098732270220948 0.009569680960282797 0.08486298283007794)
(-1.10583154531033 0.01208792594079728 0.09524320016537495)
(-1.149822161629453 0.0009027416864792582 0.007680030578145899)
(-1.131522976836631 0.001726092767170307 0.006645255462807277)
(-1.093542997613264 0.0226374877283516 0.08220444131239733)
(-1.107009588191091 0.01060698938804792 0.09634766787594873)
(-1.151507474818049 0.0007905691898214889 0.007765665922283439)
(-1.157288233246164 5.17533551404843e-05 0.008046807280757027)
(-1.111115053335245 0.0006919092896633675 0.1000049116737141)
(-1.001285047258755 4.6191522129482e-06 4.860228785661416e-05)
(-1.001232270634216 3.361150286403827e-05 0.0003484174569930096)
(-1.001248376868615 4.928328568835038e-06 0.0003570976403809386)
(-1.001020290917569 4.268560512754021e-07 3.454648368665204e-05)
(-1.000986165426202 3.225941126194965e-06 0.0002538693542952095)
(-1.001009640791444 2.661137492801066e-06 3.384167962689838e-05)
(-1.000976131178861 2.020085572186169e-05 0.0002502388854585699)
(-1.008989358466793 6.878767993078963e-05 0.0003787917472050866)
(-1.007357495582635 0.0009561064694042286 0.004919480365078659)
(-1.007745558896118 6.796443371823174e-05 0.005345789070138663)
(-1.005586140278111 8.565712720712425e-06 0.0003927576843075292)
(-1.004944981905625 5.607995600213755e-05 0.002578228807995495)
(-1.005387314368058 5.625706236618559e-05 0.0003698603215919163)
(-1.004782776084732 0.0003705762742234658 0.002432152566420562)
(-1.004331821823349 4.457103389308648e-05 0.002134116453082194)
(-1.00467938035724 4.45936858215479e-05 0.0003053020813905513)
(-1.004200685804689 0.0002960081051506124 0.002022870482432735)
(-1.003265147737475 3.523037954616151e-06 0.000187703985988441)
(-1.003002895588337 2.360627709478894e-05 0.001266286894164404)
(-1.003182273643524 2.341544584509616e-05 0.0001796737466550616)
(-1.002930853572584 0.0001584431377381374 0.001213647139670002)
(-1.002682679745217 1.939526811122652e-05 0.001078203979312468)
(-1.002829146711865 1.917435117084289e-05 0.0001525271388828472)
(-1.00262293812462 0.000130525206539864 0.001036432933618523)
(-1.002083187488272 1.634460247403309e-06 9.958250369681657e-05)
(-1.001960733879584 1.118190450763242e-05 0.0006881634599477986)
(-1.002044111533706 1.09170674446225e-05 9.630339650789855e-05)
(-1.001925489301697 7.574164315567384e-05 0.0006663135971355427)
(-1.0014005632174 5.474218247463218e-06 5.533806372362672e-05)
(-1.001339041708014 3.931557326022738e-05 0.0003935574780983833)
(-1.001357731643204 5.767357200359697e-06 0.0004037940867838291)
(-1.001882495105661 1.367900812279776e-06 8.604775782372116e-05)
(-1.001779600541031 9.413281920443094e-06 0.0005984028384468027)
(-1.001849620032844 9.141298873842832e-06 8.337419970776208e-05)
(-1.00174973085883 6.387700201842025e-05 0.0005805431668337954)
(-1.053705558790635 0.004199596638932425 0.03424007929920703)
(-1.043491887568975 0.003746329299775672 0.01460665601423039)
(-1.045646571065046 0.008925118698674229 0.03232379935300253)
(-1.024083014570779 2.069351222937773e-05 0.00137647311933314)
(-1.016312341279746 0.0002569516419970462 0.01682098286554267)
(-1.021916515571657 0.0002749967215215147 0.001196100437156053)
(-1.015121556854702 0.003457659069894029 0.01471493568953993)
(-1.009806701882986 7.901689927197839e-05 0.0004108282214679124)
(-1.007937624389392 0.001066753091052838 0.005491327400999877)
(-1.008366382941941 7.75650119651817e-05 0.006007522608474339)
(-1.02140281526943 1.741369669882617e-05 0.001176927576966715)
(-1.014943665674258 0.0002185508770494834 0.0146036652467334)
(-1.019578432861562 0.0002317126020238372 0.001029162648027661)
(-1.0138972352082 0.002947589884924016 0.01285054891148516)
(-1.192267314598993 0.01699239382981205 0.1122097783565558)
(-1.156084691578809 0.02287929869597434 0.1881670205133502)
(-1.153737156677453 0.02577796774965585 0.185840973788605)
(-1.20088239134658 0.01187660583798664 0.116551690029707)
(-1.134736345111365 0.0008096802829584221 0.006669362460003042)
(-1.0699434802998 0.0003801707541971722 0.002794407297056839)
(-1.068710373548742 0.009591455677418296 0.04953337011216987)
(-1.062642534644483 0.0006540056462151567 0.002416301676955797)
(-1.118489805187076 0.001517087739639266 0.005756571359252667)
(-1.059455223172602 0.01119808335831879 0.04017682261412811)
(-1.086530044606917 0.0200431886927881 0.07227521916044818)
(-1.175951012071748 0.01365294980054045 0.2256166864383404)
(-1.207993923930885 0.005967947654464877 0.1198179206463697)
(-1.160027180210958 0.01746195760865499 0.191862495259697)
(-1.203109041179327 0.01031588691865497 0.1176044388429468)
(-1.162991516693244 0.01246771587606384 0.1944775131010898)
(-1.13624983928204 0.0007104834869395617 0.006746600128423989)
(-1.07065850080778 0.0003368253146404003 0.002829976499658097)
(-1.073831892658438 0.003804501785813757 0.05417681083459559)
(-1.074202738479081 0.002960003805338963 0.05449689566850768)
(-1.141467386552037 4.690208296072802e-05 0.007002295376938513)
(-1.102482477997164 0.0006281021499328318 0.0882025331925162)
(-1.172471057540963 0.01517785940365268 0.09576165428877004)
(-1.1244413624992 0.01487351357690199 0.1241596341285661)
(-1.132480217468957 0.00779465094031572 0.06447041848436535)
(-1.111669934003892 0.01683246341618277 0.1055323337241586)
(-1.121061643532103 0.01875446816552095 0.1208361719410965)
(-1.126833573892279 0.01077233998031977 0.06156919559437109)
(-1.18023370759731 0.01070967058946123 0.09971558330144353)
(-1.183771418347217 0.01204014461256284 0.07720315213860278)
(-1.139178305677241 0.006161944730175999 0.05155006709415192)
(-1.211008363657388 0.001245830369417843 0.01211605305625791)
(-1.143395455965577 0.001251035336096311 0.007338339306691327)
(-1.133228581394154 0.008525577350616407 0.049241082595575)
(-1.192006591938637 0.008481869211283237 0.08035695253421513)
(-1.202026479107697 0.001772757662936994 0.01164798507803496)
(-1.206135265042512 0.01348977352369103 0.09077375401815672)
(-1.238706861694963 0.001383487531186319 0.0142808157528906)
(-1.215295651672881 0.009411708332341073 0.09423919371564886)
(-1.228684051401843 0.001988222895262153 0.01376619756036794)
(-1.256365954344606 0.01886232119282871 0.08798112245917701)
(-1.238214506465295 0.00336623531717503 0.01510960806043881)
(-1.224943027646255 0.01650833507244875 0.07304883797534296)
(-1.202338788956458 0.01498195400996077 0.08923663221401298)
(-1.224505210242402 0.002210726537269906 0.0135373089375261)
(-1.15871381327953 0.03832271643041319 0.1561269438178088)
(-1.178446598532114 0.03366168319929381 0.1407907144451328)
(-1.188711811923 0.01885748767013366 0.1102874986390413)
(-1.145161520392997 0.03532595366983513 0.1764518308289839)
(-1.161839898818082 0.006702846165802546 0.02684916813919644)
(-1.12683995429768 0.008501625557933686 0.03252715280311551)
(-1.157263055044993 0.01104897898324867 0.04399568003564263)
(-1.180380770618153 0.01331693292033213 0.07581907387126192)
(-1.14078444854863 0.001370125551606468 0.007192705747781025)
(-1.130820363554706 0.00933102811177665 0.0482592207668897)
(-1.198308249958859 0.001962778162065331 0.01144199593707055)
(-1.109476956934175 0.02900635279845007 0.107745271756019)
(-1.120311048954858 0.02003481867614853 0.07571707696559177)
(-1.132301922554227 0.02277854263778541 0.08760944197762043)
(-1.169287010725852 0.01677585064106545 0.09402964246314942)
(-1.09774882370835 0.01967328742197547 0.08698096292009651)
(-1.114632862707329 0.02486755247647713 0.1139087169658732)
(-1.124553841521414 0.01178471511966195 0.06033732831206172)
(-1.186696717214986 0.005422241687614039 0.1027295462016091)
(-1.12585764514436 0.01300057106535179 0.1254905069437702)
(-1.133969384959269 0.00683087810984673 0.06519995335967618)
(-1.108920720326332 0.007701485039495881 0.09808689495277152)
(-1.182251252473874 0.009324483945899527 0.1006829353055681)
(-1.128146782342334 0.009380366769614255 0.1275670940756703)
(-1.137286897204399 0.004029660058366465 0.06677211229139071)
(-1.1988297699314 0.004288825000387651 0.08275570257577142)
(-1.140743783694698 0.005398433625914478 0.05212991165604685)
(-1.213324220585692 0.001083616358202102 0.01223016990729166)
(-1.15524776247033 0.0004657666103922908 0.00794984211933158)
(-1.194139869700452 0.007381813128450821 0.08112735087238672)
(-1.144225807079689 0.003182548300055882 0.05337843320661243)
(-1.218400886966596 0.0006288792304847786 0.01247137542862329)
(-1.222816976330302 0.004722891801249397 0.09684046757611134)
(-1.241274906331947 0.001200399878224689 0.01440520628588709)
(-1.217654639764885 0.008171316183278441 0.09507815059704311)
(-1.246877879351348 0.0006929900261715391 0.01466679957662165)
(-1.22393001622938 0.003642224057533793 0.09720698304597331)
(-1.249847647047743 7.554730656431781e-05 0.0147989612073304)
(-1.225562218468999 0.0005140663218406669 0.09773433842241684)
(-1.248083250741447 0.0005343219343750526 0.01472138006802628)
(-1.199846914924674 0.003311249417188997 0.0830969966069893)
(-1.156067838958585 0.0003607856174935107 0.007989140362162844)
(-1.22111801240818 6.892557369160185e-05 0.0125948182262867)
(-1.146129666599765 0.0003505154910839715 0.05403713772488877)
(-1.144990626612832 0.002465030998264161 0.05364508429418021)
(-1.201347358994652 0.0004683043017470591 0.08359216704075122)
(-1.219499482700493 0.0004854666423259145 0.01252198237111284)
(-1.187662886704292 0.00418708043508394 0.1031588635842481)
(-1.120051733691326 0.003816126380036345 0.1133453879692784)
(-1.139103949745056 0.0004438189252107531 0.0676022671961969)
(-1.130757634061801 0.0008365969608029989 0.1298256727896966)
(-1.130239671114936 0.004196734308761813 0.129386935841852)
(-1.138016573734392 0.003121580418611495 0.0671081149458809)
(-1.189089675218469 0.0005922220999680131 0.1037818792187084)
(-1.209049763917144 0.004603277778593799 0.1202786624313741)
(-1.166103996124209 0.003301503077464074 0.1970740421897294)
(-1.165668107855169 0.005525712153221283 0.1967206325062412)
(-1.210600481765329 0.000649808250869893 0.1209417786767628)
(-1.084726526392843 0.02472769551077391 0.08842858552258694)
(-1.095595920594192 0.01327566222442041 0.1025102572096342)
(-1.07899167238569 0.02193680749248915 0.07804414913146084)
(-1.055797053919703 0.01235464887565717 0.04399610175654434)
(-1.088902568507027 0.01197045827551045 0.09058353922562698)
(-1.064083661869694 0.01058198169144248 0.05410443702757892)
(-1.096651132465751 0.01165551085714557 0.1037104483602458)
(-1.100347449842715 0.0007616751300456112 0.1076942527895788)
(-1.089868142810231 0.01052713140767377 0.09167265184854755)
(-1.068769968154736 0.004204922011199922 0.0591817742355721)
(-1.06911058155404 0.003271986950934956 0.05953259775439319)
(-1.093258298024718 0.0006920358189102102 0.09531434906183277)
(-1.248777166676551 0.02081905383673246 0.08544483215989795)
(-1.231181212617831 0.003690122989156179 0.01465040261180222)
(-1.21831774686238 0.01807731265235664 0.07081353106843172)
(-1.154196862686843 0.04170946329700935 0.1511693015434227)
(-1.173288917159355 0.03670773629942955 0.1363677557458659)
(-1.127967392287411 0.001839832161369942 0.006422844730831164)
(-1.123440952756169 0.009058463467147825 0.03143964598626467)
(-1.157268601746053 0.007206717408198681 0.0259577458128107)
(-1.15284400824702 0.01187460931805851 0.04253366140664563)
(-1.117130279036844 0.02138980966192348 0.07318260441593581)
(-1.091252818736412 0.02404340145879324 0.07946948982058588)
(-1.106658405592075 0.0310258785075433 0.1041395949318562)
(-1.128717181497585 0.02442187922173576 0.08468496750445553)
(-1.001186863596142 5.390487383982278e-06 0.0001365136675113661)
(-1.001299305438541 2.033991539981292e-06 4.968554072478951e-05)
(-1.001292997804674 2.132351014563718e-06 0.0001547434205748724)
(-1.001197207614832 5.860742804307183e-07 4.394938451086656e-05)
(-1.001290139601919 6.336623352526777e-06 0.0001540965631926391)
(-1.001189311948216 1.817066369335618e-06 0.0001370555592116016)
(-1.001194738893355 1.715488617185928e-06 4.376627214180567e-05)
(-1.000784663851948 3.700810527316708e-06 4.726170282606205e-05)
(-1.000768554946628 1.166911425336252e-05 0.0001422997769285079)
(-1.000775213523246 4.255148360296474e-06 0.0001467745925162321)
(-1.000945521912123 3.736478769544867e-07 3.152055001867935e-05)
(-1.000915279990802 3.208712321828079e-06 0.0002288583409090031)
(-1.00093596211198 2.276103998568294e-06 3.097953023780247e-05)
(-1.00083942507242 1.610214346397278e-05 0.0001558294858444591)
(-1.007436320028377 0.0001257019740905648 0.001751557650558732)
(-1.009408358534079 3.432989291038097e-05 0.0004070623709836003)
(-1.009117483079569 3.445718338654082e-05 0.002712731105729504)
(-1.007682619889702 1.434634073779985e-05 0.0005980311678931354)
(-1.009006185821336 0.0002358902054543251 0.002660801893177454)
(-1.007490819244464 4.240939729667071e-05 0.001772389547973414)
(-1.007625924803913 4.240421977166518e-05 0.0005909528294792879)
(-1.004126403468037 4.763380202900924e-05 0.0007919365669134861)
(-1.004748960776083 2.008005987538255e-05 0.0009619697464441433)
(-1.00481008275738 2.000422332184686e-05 0.0003196473561781629)
(-1.004217034518037 5.395463724220303e-06 0.0002673078942013066)
(-1.004722923893098 5.960526044155561e-05 0.0009531742664378237)
(-1.004147257950239 1.603896170919509e-05 0.0007986639013553283)
(-1.004195596623073 1.595560995313938e-05 0.0002650326364005689)
(-1.002543905906295 2.109922922736347e-05 0.0004053838199496939)
(-1.002860218076368 8.604452354809487e-06 0.0004778991950230955)
(-1.002885618704508 8.511378350877557e-06 0.0001577851585237438)
(-1.002583579943337 2.370112092868084e-06 0.0001352529456437635)
(-1.00284894858815 2.557977403279425e-05 0.000474691588577526)
(-1.002553220748078 7.09599924845173e-06 0.0004079363414314953)
(-1.002574078399968 7.001737151265754e-06 0.0001343924862594902)
(-1.001538397692064 8.772176814600601e-06 0.0001987682519166547)
(-1.001417281038073 2.408779741225293e-06 5.661020606919066e-05)
(-1.001409915657442 2.505679169876896e-06 0.0001754252757888476)
(-1.001554934461184 9.695313701437733e-07 6.504116529438653e-05)
(-1.001406571426184 7.450288968493739e-06 0.0001746573338535857)
(-1.001542320371047 2.949711340739871e-06 0.0001996864634578109)
(-1.001550958642257 2.853471075921055e-06 6.473192171971965e-05)
(-1.0424315415743 0.0003948362858526452 0.04783253391962602)
(-1.028242130831097 0.0004642914719774562 0.05381356306872869)
(-1.028005600453122 0.004139870844330202 0.05303084469870257)
(-1.032774687572843 0.002441111346605735 0.02126081090965701)
(-1.025134583579265 0.001837874151994369 0.03606166380456848)
(-1.024979686884685 0.003044963857658564 0.03563943623542124)
(-1.033541186143739 0.0003576509967801241 0.02214853722133296)
(-1.012938003344547 0.0004195565005996038 0.004394309471949894)
(-1.010287755029476 3.955968423458313e-05 0.0004430351636267046)
(-1.009948536201796 3.952206980993429e-05 0.003073995729326421)
(-1.013900137652022 9.117127753576273e-06 0.0006620212300901014)
(-1.009821153458137 0.0002708995699090102 0.003011697511598247)
(-1.01313340877951 6.130436671803905e-05 0.004499167194425583)
(-1.013686836042234 6.164590506002402e-05 0.0006463946470449608)
(-1.168439372391906 0.02527056601183725 0.2188564950104276)
(-1.170724376358377 0.02215313291183754 0.2210034874460863)
(-1.196489271423409 0.02268382813282544 0.2047785810655267)
(-1.199070042886791 0.01986615352366203 0.2067252001531525)
(-1.07412197108122 0.01069197947738188 0.05555798680094262)
(-1.095114899816343 0.01354487731082901 0.08140626693193137)
(-1.077124443728151 0.007946427151878039 0.05837936658507158)
(-1.120220255727831 0.007001495259793289 0.05627789764573998)
(-1.115146504934026 0.009608230006229524 0.05367889080849424)
(-1.087514511650086 0.006841949812371841 0.03651344451790224)
(-1.091197890678077 0.005071634236928239 0.03836124182811914)
(-1.172734390609628 0.01919053951573068 0.22282536827239)
(-1.174474904868366 0.01636355603806007 0.2243544495848053)
(-1.203282842444245 0.01465180034420144 0.2097585316995211)
(-1.201331382715586 0.01719512153517875 0.2083752060543745)
(-1.100475530481767 0.006967963133674438 0.08644596773304949)
(-1.079757565958376 0.004207844133855256 0.06073338762614849)
(-1.077932103525561 0.007015069118369077 0.05911360029725713)
(-1.121563795976907 0.006147381860727481 0.05693701520647038)
(-1.124565887373791 0.003641854168376886 0.05836556943220986)
(-1.094399986835182 0.00267910757684633 0.03989435082612713)
(-1.092182926966973 0.004473934625338588 0.03884030007276153)
(-1.114747124336236 0.01341411566266185 0.1085472891163635)
(-1.113290480234545 0.01510930574459397 0.107141870305218)
(-1.104505529730577 0.01358670849269281 0.09397006406782887)
(-1.124626856396509 0.01348639740914893 0.09761005202294054)
(-1.115559837388294 0.01077155453906863 0.08644315819468454)
(-1.114101491898232 0.01211379765310894 0.08529691547492883)
(-1.126235673786129 0.01196581134137498 0.09887697713261492)
(-1.162923619963861 0.003391749990124425 0.02613904004999376)
(-1.147996569833285 0.002695707293945967 0.02287967467612897)
(-1.167231818266121 0.001005998288366052 0.00888956204631163)
(-1.147910994115365 0.001016975394102792 0.007580922243196294)
(-1.146109035530826 0.003036673150090148 0.02258414282916464)
(-1.165028091803086 0.003003661046788917 0.02646685836665806)
(-1.165099968723017 0.001136057454950546 0.00877961183402984)
(-1.300679222915946 0.005794969500758169 0.05963614257021849)
(-1.310600145379471 0.001695612948942592 0.02028557914142538)
(-1.304242555095616 0.005060904631188402 0.06014794811989754)
(-1.306982059121199 0.001941765275603113 0.02011395346048146)
(-1.273199858572163 0.003848385922031713 0.01825768213357151)
(-1.267486745721911 0.01146731040326611 0.05410493456167248)
(-1.274637546672872 0.01034271831368819 0.0554230874337119)
(-1.280491287919364 0.003469687005153012 0.01870060264150333)
(-1.173736898488705 0.04356235174319448 0.1841459384913562)
(-1.148750087812571 0.04805029430946565 0.1962715826106113)
(-1.152742010013936 0.04373967655485449 0.2015379871528285)
(-1.178434108753237 0.03956523472024915 0.1889851575526138)
(-1.129943617867388 0.005151479933859004 0.01979650190455003)
(-1.144693705066755 0.005871089998659042 0.02297864977606617)
(-1.146606583342241 0.001967807577159021 0.007718570199947637)
(-1.148417821202599 0.005451263100546916 0.02367066514697526)
(-1.134847250954268 0.001608822323413514 0.006847183874236527)
(-1.133219904970131 0.004801956154198276 0.02039776697829422)
(-1.150388357904479 0.001826858169017594 0.007951058694452019)
(-1.101183001147972 0.02560740668224865 0.09389976839760125)
(-1.11110256073376 0.02297512112476836 0.08560417595185105)
(-1.101928969312322 0.02027243001397354 0.07464981054149375)
(-1.095710793653679 0.02117390377905742 0.08470683816280669)
(-1.103585047266029 0.0238746603772841 0.09675355969732549)
(-1.113807355535358 0.02139917586647292 0.08820177348235164)
(-1.104352200339863 0.01894608290219332 0.07692217444902066)
(-1.116039520805475 0.01174860605495412 0.1097620330449579)
(-1.108039316025594 0.00914493921737765 0.09729279511409837)
(-1.117167816773212 0.01011260984312968 0.1107981713545611)
(-1.128900706267341 0.009011469193421101 0.1009030003311353)
(-1.116852888786217 0.009447262958297641 0.08743656698772148)
(-1.117981171906868 0.008141584680241946 0.08828592011716618)
(-1.127659850020641 0.01047434486205444 0.09997084606098398)
(-1.168485167281557 0.002255116119923146 0.02698887310078908)
(-1.149661442949935 0.002360818674922438 0.02313507236094372)
(-1.169107334794459 0.0008791079459246626 0.008984191018458512)
(-1.152970976175647 0.0006804393178848209 0.007838693470416344)
(-1.15110749164391 0.002031957136547982 0.02335289840223181)
(-1.166880016343854 0.00262493046440949 0.02674903653522431)
(-1.170732570197344 0.0007552349109021607 0.009064612982008792)
(-1.309984572850038 0.003716508792937132 0.06094331942751779)
(-1.313740349524053 0.001464076688320739 0.02043085697782803)
(-1.307336223152198 0.004370136349139109 0.06058087567865062)
(-1.316428023720819 0.001245063608309015 0.02055264289546228)
(-1.172979588583372 0.0005071286535127282 0.02763726348064535)
(-1.15708574837043 0.000154106523847977 0.008037336726600159)
(-1.175504405645977 5.703408949911492e-05 0.009292156652701571)
(-1.155374770313723 0.0001534198913514991 0.02397411351330767)
(-1.155174556212386 0.0004593804156916171 0.02394571160381407)
(-1.173199792888338 0.0001692587541050145 0.02766809758377741)
(-1.175281644424149 0.0001700773276779017 0.009281913890374829)
(-1.120528153313827 0.0007613372259995821 0.1137523115921093)
(-1.120369565461771 0.002284843707069131 0.1136172952698687)
(-1.110969444740539 0.002075882146850772 0.09988022573433558)
(-1.132408599996491 0.002033334370678941 0.1034343732572204)
(-1.121339867229563 0.0006152791542728252 0.09071893952571178)
(-1.121181280554065 0.001845921316206459 0.09060725694000846)
(-1.132581785597457 0.0006775387549640017 0.1035553668661673)
(-1.179303801716572 0.00360212490377183 0.228357378450992)
(-1.179534303032705 0.00119828835478935 0.2285373421117834)
(-1.208654380134627 0.003218396451077083 0.2133605968596922)
(-1.208908304628727 0.001070279369311949 0.2135200412846749)
(-1.001182005510707 8.875737969721868e-06 0.000135414145498331)
(-1.001293566092061 3.347315182169645e-06 4.925099031615049e-05)
(-1.001276022337565 1.445407641302774e-05 0.0001508724660863484)
(-1.001182592516427 3.877939801969824e-06 4.283475311754566e-05)
(-1.001284458335388 1.045822664640288e-05 0.000152804365979798)
(-1.00118984236917 2.815881042741471e-06 4.339674732117948e-05)
(-1.001174804910151 1.223607907902321e-05 0.0001337317405800432)
(-1.001166653015784 1.487456703364157e-05 0.0002258186554340422)
(-1.001258304060488 2.415094780485948e-05 0.0002512304007211771)
(-1.001240285595586 2.429237443304653e-05 0.0003527355241176104)
(-1.001137202648829 2.869941366403139e-05 0.0003097372973266016)
(-1.001266574398463 1.746457953639783e-05 0.0002543938832107965)
(-1.001144136291046 2.075496652183973e-05 0.0003134573560337478)
(-1.001159548783171 2.053105445841881e-05 0.0002230770013144041)
(-1.001171428011723 9.021926126345744e-06 0.0002276191969508684)
(-1.001274935972878 3.549345788389675e-06 0.0002575754078865981)
(-1.001245670110031 1.469819776761409e-05 0.0003556417796825974)
(-1.001151101002214 4.219647417121851e-06 0.0003171507172858932)
(-1.001272138208275 1.057346082637797e-05 0.0002565139462472789)
(-1.001173832237261 3.032738646538463e-06 0.0002285059072051023)
(-1.00114876805383 1.256970886077267e-05 0.000315934015839998)
(-1.001094837960181 4.592997063704651e-06 0.0001214127262566609)
(-1.001103772632141 4.969619678160905e-07 3.885125223841667e-05)
(-1.001014302506261 1.355333879314753e-06 0.0001085234974144125)
(-1.001018438511045 1.233027414999147e-06 3.443175625616465e-05)
(-1.001012436512051 3.962231939982493e-06 0.0001082251570898529)
(-1.001096948751263 1.555358109997823e-06 0.000121846206313304)
(-1.001101652197906 1.446941045441964e-06 3.870267744001553e-05)
(-1.001081545164263 7.71887103294418e-06 0.0002029047255672266)
(-1.001064208542586 3.634793596019804e-06 0.0002829960465790547)
(-1.001002647425257 2.2914422274162e-06 0.0001821461874650867)
(-1.000984385517951 9.402860766585385e-06 0.000253469193370079)
(-1.001000775476846 6.711350305757919e-06 0.0001817072821487197)
(-1.001083626098001 2.606201925210194e-06 0.0002036015200101986)
(-1.001062196313263 1.07748469869465e-05 0.000282061491847936)
(-1.001090676821276 7.503066169905795e-06 0.0001205016761884351)
(-1.001091334500998 3.223494721021327e-06 3.791698945014509e-05)
(-1.001014832706876 1.981267427128168e-06 3.420506416496745e-05)
(-1.001003615439138 8.265148756770522e-06 0.0001065188498831738)
(-1.00100882418337 6.358382997553941e-06 0.0001075386357612272)
(-1.001097471234796 2.357789478743301e-06 3.839707324463394e-05)
(-1.001084556213107 1.021990015059852e-05 0.0001190429403690683)
(-1.001077444248078 1.263953655260805e-05 0.0002014263917377145)
(-1.001052253606169 2.435725398640272e-05 0.0002768435934466268)
(-1.000981226742615 1.521214404425829e-05 0.0002521487718343804)
(-1.000991921715799 1.416949863014926e-05 0.000179053470857035)
(-1.000997206796431 1.08023403403532e-05 0.0001806598639434036)
(-1.001058266220384 1.770977967522615e-05 0.0002800148413041817)
(-1.001071338450757 1.727387105884189e-05 0.0001990712156111312)
(-1.007329018267017 0.0002049935324237625 0.001710726281535028)
(-1.009330268491722 4.358792488280087e-05 0.0004018215711457355)
(-1.008091190733736 0.0002948520955056547 0.001748383458112717)
(-1.007351452984541 9.360530888022177e-05 0.0005570080770148845)
(-1.008933181829781 0.0002998811862135897 0.002624702051450971)
(-1.007514354468797 6.909783481866176e-05 0.000577094551237106)
(-1.007172217753423 0.0002778760588015383 0.001651460760399406)
(-1.006971098810566 0.0003331820826440654 0.002773541288255752)
(-1.008075572901483 0.0007242427927365951 0.003772017776318279)
(-1.006960745736876 0.0006641847092122738 0.004586720112572452)
(-1.006336186146646 0.0006090012117836557 0.00359338772719942)
(-1.008676552231893 0.0003798494302211985 0.003356513397882141)
(-1.006464078518255 0.0004492487743825745 0.003725033538178619)
(-1.006825993042171 0.0004519662482628188 0.002677607749887195)
(-1.007070271376782 0.000204193179450454 0.002839300197802789)
(-1.008852581646086 4.358871297442031e-05 0.003467974592210648)
(-1.007702649251939 0.0003362284187742791 0.005294482312187856)
(-1.006596512121597 9.27141437089015e-05 0.003857383393074515)
(-1.00874631286202 0.0002987560159375549 0.003401739393236873)
(-1.006552009102609 0.0002751761773371748 0.003812865184307697)
(-1.007120581321437 6.883925809005056e-05 0.002872794929286334)
(-1.006313430035553 9.620236014966168e-05 0.00141798389986507)
(-1.006499983426503 1.09598139933176e-05 0.0004827161266865057)
(-1.005474004876282 2.538935327332493e-05 0.001168726512497303)
(-1.00555220908404 2.532557433123005e-05 0.0003888168782617106)
(-1.005441179293244 7.532386400379005e-05 0.001157096647264398)
(-1.006355252806713 3.244291039542081e-05 0.001433516973145943)
(-1.006456622955159 3.239935491964017e-05 0.0004774474052183926)
(-1.006036148110077 0.0001566050029867225 0.002305209707898886)
(-1.005676371255221 7.130285698727142e-05 0.00314206601330956)
(-1.005256270644773 4.138865449688539e-05 0.001904887768312823)
(-1.004917291236913 0.0001665341077529527 0.002553072164203693)
(-1.005225576869258 0.000122874010492485 0.00188608645374261)
(-1.005641671628753 0.0002116039584896858 0.00310860757565866)
(-1.006075011297509 5.278001216976992e-05 0.002330272414011208)
(-1.006231047158647 0.0001570554963199372 0.001387508406333405)
(-1.006246333101014 7.17258057732299e-05 0.0004521224380804595)
(-1.005485308143989 4.136799545901246e-05 0.0003810891638723901)
(-1.005281648492889 0.0001675305929760048 0.001101106190737116)
(-1.005376456440122 0.0001231338463378778 0.00113427476001354)
(-1.006371215733105 5.28562557308124e-05 0.0004671200541447959)
(-1.006110592011721 0.0002132089329488939 0.001343218553110194)
(-1.00595960969917 0.0002556942795625638 0.00225599430506237)
(-1.005474176349374 0.0004685224470246055 0.00294701669316519)
(-1.00486270555839 0.0002722891834911729 0.002503722783285739)
(-1.005076421532104 0.0002733790411345683 0.001795581100644499)
(-1.005165060401024 0.0002008987958138195 0.001849188801379821)
(-1.005573412267844 0.0003453909356797445 0.003042813353514236)
(-1.005847812670718 0.0003470985840114667 0.002184380552208561)
(-1.003991407205375 7.802083555459058e-05 0.00129661200373743)
(-1.004577737796795 3.279914471937176e-05 0.001571597152638121)
(-1.004309506901888 0.0001324583644755076 0.002114996053471132)
(-1.003814859414939 3.57618326268473e-05 0.001780591844328362)
(-1.004553243714792 9.743760221527629e-05 0.001557350115769204)
(-1.004011133117574 2.624725141710236e-05 0.001307533259868316)
(-1.003796735050692 0.000106349464706134 0.001765883708132754)
(-1.004085192724638 7.808461255458727e-05 0.0007787113635172972)
(-1.004757113179491 3.271925414015912e-05 0.000313804355793826)