/*--------------------------------*- C++ -*----------------------------------*\
  =========                 |
  \\      /  F ield         | OpenFOAM: The Open Source CFD Toolbox
   \\    /   O peration     | Website:  https://openfoam.org
    \\  /    A nd           | Version:  7
     \\/     M anipulation  |
\*---------------------------------------------------------------------------*/
FoamFile
{
    version     2.0;
    format      ascii;
    class       volScalarField;
    location    "0";
    object      mag(grad(Phi));
}
// * * * * * * * * * * * * * * * * * * * * * * * * * * * * * * * * * * * * * //

dimensions      [0 1 -1 0 0 0 0];

internalField   nonuniform List<scalar> 
12693
(
1.00068513834499
1.001302194773268
1.000790308348467
1.000513403776026
1.009527604333385
1.004836970712785
1.002897144921973
1.001420667460128
1.000421297362732
1.000357588083275
1.000310757563106
1.000276196646549
1.000250787262628
1.000232420794852
1.00021968226784
1.000211648337447
1.000207762334218
1.043053302139136
1.010424857736955
1.100912149645478
1.102046235996193
1.109991347594531
1.149848164405397
1.131543806454544
1.096862030362588
1.111245071834301
1.151533931384005
1.157316209424136
1.115606616530001
1.001285048448985
1.001232331821044
1.001248440560608
1.001020291513781
1.000986197624476
1.001009641367033
1.000976162661916
1.008989431914013
1.007369961500323
1.007759739995003
1.005586217015428
1.004948290742387
1.005387383973825
1.004785788021219
1.004334090214317
1.004679427734521
1.004202766873501
1.003265165302721
1.003003695206724
1.00318229000692
1.002931600405252
1.002683259639377
1.002829158494621
1.00262348231213
1.002083192437635
1.001960970263062
1.002044116220888
1.00192571372485
1.001400564761372
1.001339119820017
1.001357813074103
1.001882498801747
1.001779779310161
1.00184962354376
1.001749901116231
1.05427009075883
1.043600837871168
1.046184131655841
1.024083939840306
1.016451566247122
1.021917252558919
1.015234091197545
1.009806788544864
1.007953147372691
1.008384281210113
1.02140349348437
1.015048747250803
1.019578978609762
1.013982952744418
1.197656513892021
1.171521277664457
1.168892979642778
1.206583552043245
1.134756233247688
1.069947196957865
1.069900655812199
1.062645483062357
1.118505647717725
1.060275881105467
1.089115684650246
1.197476544668095
1.213936271293169
1.175916321801424
1.208887334091115
1.179205755982222
1.136270090545615
1.070662293895813
1.075204415335265
1.075588302565619
1.141488864992685
1.106005287358363
1.17647313722814
1.131373154114998
1.134340616570423
1.116794720373508
1.127711097366896
1.128565776729755
1.184487019408054
1.186347361727673
1.140360728500389
1.211069613062402
1.143419688931375
1.134329928800679
1.194742188570851
1.202084221135173
1.209621480458842
1.238789951907304
1.218980363607602
1.228762775882635
1.259584009229313
1.238311267742099
1.227230246871216
1.205738860161742
1.224582033167187
1.169812785989829
1.187304307994243
1.193965958058499
1.159214423389558
1.162169418140962
1.127341375053805
1.158151751011257
1.182888260280828
1.140807946286492
1.131888119517405
1.198364482821733
1.115073777853449
1.123045553890817
1.135914574318127
1.173181621181767
1.101365155659811
1.120714062370112
1.126233019929206
1.191147286869484
1.132904373418619
1.135862782574884
1.113276926825648
1.18656732781526
1.135375055777167
1.139252491633373
1.201690358454485
1.141947043786609
1.213386342242341
1.155275209472168
1.196915271283999
1.145474610514105
1.218464875183178
1.226654694471475
1.241359071347766
1.221388327629699
1.246964330388288
1.227789537329683
1.249935260639922
1.229453137175104
1.248170182832603
1.202725527488322
1.156095499863381
1.221182965171309
1.147402870736646
1.146249277634667
1.204252193962258
1.219563866317436
1.192141944247133
1.125778675379579
1.141108264727801
1.138186378498185
1.137629248001035
1.139997791861925
1.193610189673473
1.215026534043882
1.182644328530104
1.182163981188357
1.216626837831021
1.088605856461871
1.100461274767684
1.082032874645814
1.056785556952846
1.092729368668733
1.065510820170591
1.101605834393971
1.105605328590757
1.093767463542979
1.070415530810473
1.070771811211339
1.097405581474123
1.251870066883223
1.231273905192291
1.220507876965543
1.164801371433689
1.181757380277511
1.1279871789965
1.123917292966799
1.157582117143638
1.153689484241825
1.119729109154268
1.094406779660203
1.11198043464682
1.132153014266978
1.001186872917598
1.001299306673332
1.001293009764247
1.001197208579623
1.001290151479547
1.001189321330821
1.001194739851425
1.000784664974749
1.000768565131497
1.000775224295339
1.000945522408496
1.000915306160067
1.000935962593984
1.000839437333181
1.007437850523548
1.009408441195525
1.009121129872026
1.007682797449112
1.009009721725526
1.007492379139985
1.007626098987271
1.004126716890931
1.0047494214826
1.004810133799164
1.004217070109258
1.004723377796229
1.004147575693065
1.004195631724242
1.002543988087839
1.002860331981407
1.002885631152886
1.002583589069248
1.00284906126036
1.002553303767314
1.002574087431901
1.001538417454546
1.001417282641059
1.001409931025927
1.001554936573547
1.001406586685067
1.00154234028203
1.001550960738189
1.043528450050997
1.029649452363667
1.029380844771773
1.0329963874072
1.025770313387937
1.025603627014989
1.033778539664414
1.012947621845784
1.010287852944706
1.009953215148052
1.013900353824783
1.009825680838035
1.013143400634313
1.013687044008935
1.189027894487929
1.191607682150821
1.214098595647524
1.216921912113804
1.075610997099752
1.098219963302852
1.078734612137774
1.12165486850556
1.116479049901456
1.088148821144113
1.091883758908755
1.193869914383961
1.195823560221269
1.221516645729712
1.219390417298806
1.103887607973141
1.081472446051752
1.079574568404555
1.123024916219802
1.126085359926916
1.095130160314331
1.092882487259686
1.120099818627532
1.11853625997258
1.108579016937448
1.128935415025719
1.118955851130712
1.117427600398784
1.1306310760617
1.16322229141836
1.148227708557883
1.167266102445697
1.147936476914962
1.146335546956714
1.165332558226116
1.165133601493353
1.302058559396388
1.310758223660285
1.305638552946818
1.30713826523474
1.273336574869061
1.268692828754276
1.275883837122737
1.280632535001536
1.188892641085033
1.166386783692738
1.171044346394152
1.194147288338709
1.130128762041037
1.144939372396092
1.146634250995652
1.148674674881281
1.134869047615069
1.133413640601312
1.150417285487008
1.105475873911035
1.114632150801426
1.104640674175213
1.099184118317745
1.108075451975811
1.117499128777228
1.107190027671312
1.121485597607973
1.112340165485752
1.12269427293773
1.133436997218527
1.120310126355252
1.121491234843276
1.132131008015862
1.16879898655713
1.149896620763661
1.169142185018247
1.152997823075314
1.151346144316436
1.167189519211914
1.170767905483048
1.311406680524981
1.313900022606355
1.308746400551137
1.316589041026424
1.173305241932119
1.157113672727289
1.175541132892103
1.155623486060187
1.155422807224724
1.173526014328472
1.175318308617753
1.126287490117784
1.126118143672414
1.115452139684411
1.13712446168649
1.125003734391812
1.124838008915307
1.137306323789979
1.201215020027635
1.201470734002851
1.227346125991629
1.227620154008739
1.001182014707721
1.00129356730892
1.001276033808638
1.001182593440262
1.001284470049616
1.001189843313649
1.00117481391652
1.001166678593603
1.001258335870453
1.001240348024389
1.001137250974297
1.001266606867967
1.001144185577795
1.001159573846545
1.001171453927311
1.001274969109475
1.001245733379772
1.001151151245569
1.001272171122005
1.001173858318719
1.001148817982622
1.001094845333181
1.001103773386142
1.001014308389886
1.001018439103975
1.001012442370312
1.001096956167586
1.001101652947076
1.001081565756945
1.001064248549996
1.00100266399988
1.000984417653839
1.001000791991607
1.001083646805747
1.001062236108384
1.00109068410181
1.001091335224253
1.001014833293237
1.001003621140704
1.001008829980016
1.001097471973933
1.001084563343208
1.001077464592332
1.001052292183401
1.000981258616545
1.000991937830275
1.000997223157454
1.001058305539747
1.00107135839326
1.007330491769981
1.009330349416906
1.008092750007377
1.007351611330432
1.008936640422356
1.007514522115343
1.007173610035577
1.006974973562569
1.008082890106949
1.006971411013086
1.006342785966099
1.008682208373975
1.006471072136165
1.006829654967564
1.007074294583758
1.00885854322681
1.007716613886007
1.006603907313059
1.008752092834894
1.006559268345059
1.007124680965956
1.00631443366532
1.006500099241191
1.005474684439261
1.005552284574871
1.005441847928027
1.006356274325906
1.006456736723465
1.006038801349673
1.005681282198291
1.005258076307307
1.004920548171854
1.005227353792298
1.005646498494162
1.006077711368528
1.00623201604401
1.006246437230228
1.00548538121331
1.005282265484637
1.005377103829837
1.006371325531017
1.006111511241327
1.005962171871276
1.005478604310467
1.004865861591139
1.005078062623679
1.005166781440047
1.005578075272128
1.005850244445112
1.00399224749605
1.004578967662732
1.004311742641217
1.003816439279841
1.004554455612726
1.004011984866804
1.003798293958456
1.004085497722912
1.004757162715702
1.004596511747467
1.004091001247228
1.004671968056432
1.004153272033665
1.004024891585069
1.003953235394823
1.004267608511253
1.004435007367619
1.003709601864898
1.004506061610129
1.003762414579038
1.003895850729821
1.003627326783412
1.003699907705405
1.003220064816651
1.003251112989585
1.003206333428484
1.00364418206835
1.003682623792012
1.003519239334759
1.003377667678106
1.003131785500366
1.002991482608504
1.003118678304914
1.003535263088384
1.003362830317339
1.003593987591794
1.003598112497582
1.003223297847378
1.003139069260435
1.003179150799329
1.00364844062544
1.003544893148478
1.003487537762053
1.003290182727504
1.002967294497767
1.003054447207723
1.003092726208638
1.00333346548831
1.003440837588204
1.002484945091691
1.002788189731924
1.002673144400255
1.002407308799917
1.002777392812371
1.002493897544321
1.002398880675562
1.002525521071132
1.002862823797157
1.002793771575956
1.002527422433068
1.002826733411123
1.002555253196048
1.002498229891816
1.002467195526842
1.002653097067743
1.002724410149817
1.002357452976075
1.002755999961282
1.002382166971587
1.002440958766433
1.002281986744346
1.002314833922888
1.002062253328324
1.002076594605585
1.002055767112586
1.002289736603673
1.002306940516801
1.002233001235036
1.002168527329284
1.002021126255561
1.00195502046913
1.002014858814281
1.00224047021177
1.002161465020201
1.002266614473073
1.002268127420801
1.002063500897304
1.002023834824299
1.002042894190712
1.002291284531071
1.002243874839417
1.002218184235496
1.002126713233152
1.001943208906445
1.001983997185247
1.002002418724329
1.002147452082577
1.002196261801219
1.001530620867555
1.001410554074831
1.001390065613549
1.001531334241232
1.001399937911485
1.001543059221104
1.001519050743561
1.001506172901332
1.00136943581292
1.001348413508656
1.001459457538941
1.001379075669782
1.001470271766948
1.001494908670634
1.001513762249358
1.00138882972728
1.001354668206365
1.001481220968722
1.001385565822892
1.001517580405836
1.001477556533247
1.001688307368636
1.00170776774674
1.001864919526281
1.00187695269628
1.001859460633345
1.001692924834024
1.001703082079907
1.001659268707163
1.001620962374203
1.001830377503037
1.001774741066376
1.001825089863234
1.001663751947924
1.001616675306137
1.001679134128994
1.001679970900164
1.001865940412227
1.001832558816135
1.001848620994161
1.001693773761071
1.001665530722772
1.001650361346061
1.001595520028193
1.001764734320022
1.001799027355124
1.001814589282983
1.001608156621394
1.001637150586884
1.055693256435437
1.064999081963902
1.035579404838349
1.040830648152012
1.036453902633523
1.03980662758295
1.051858169743814
1.064354955276033
1.057805381838166
1.035009502747822
1.041651097182708
1.039136114152228
1.039247345474799
1.040494535110056
1.026503686800402
1.026963530966874
1.03235074005018
1.027212511723317
1.024628195386881
1.030777882690289
1.031145175706935
1.035322762413558
1.022225441083441
1.023599504486075
1.021794396148509
1.031866023906093
1.034485658052685
1.029089430669141
1.019716296579177
1.021060015814405
1.016314986134288
1.020661778484706
1.019537445523093
1.02973897687252
1.030677215375134
1.027414625823147
1.023282745143419
1.021092170077061
1.021512417622618
1.033938647928736
1.026603246780986
1.02866008466482
1.01812612180459
1.015783589219465
1.01999189791784
1.020401210787377
1.018842520517661
1.022177177159455
1.012819296882016
1.010197945742058
1.00958954277518
1.011666510415076
1.009741935185537
1.013547265205512
1.011471740960575
1.012354304194479
1.008765727775997
1.008146374696797
1.009280050246063
1.009448430902065
1.009531585251817
1.010366158748247
1.012475380427015
1.009649716798768
1.008335801591376
1.009835545337246
1.009528233078273
1.009773519661047
1.012660074306687
1.014275593300316
1.01539855683916
1.019869616103387
1.020995876280929
1.019504186746224
1.014503160681377
1.015149328456007
1.013719159304436
1.01260896694469
1.018903408332392
1.014929373563429
1.018564143252215
1.012548085529585
1.013933086854173
1.014126508118524
1.015807595759532
1.020729250672792
1.016988909679802
1.019265078713456
1.014986096021476
1.01532820553415
1.013578986856174
1.012721711271106
1.014464492943904
1.016372273472977
1.018342124944495
1.012191263763587
1.013542059470668
1.23779390611292
1.262482155690874
1.240834931881366
1.259253404522711
1.186120942818806
1.182877145580613
1.21090641138344
1.20733026773963
1.234346199980479
1.251452213851298
1.25558504853755
1.230471583505332
1.208728733381362
1.22238285879384
1.18355576710896
1.20098077937076
1.186678768311347
1.226092477465823
1.205247606140329
1.173860178301243
1.158059654835621
1.155942246036707
1.192323108101025
1.175609933864676
1.194878986020965
1.173299941151023
1.153568867025845
1.150935775638625
1.165968982986721
1.189441763409955
1.167812052554823
1.170702982224676
1.186224408437945
1.211836997148728
1.232314431986817
1.203952109827006
1.191958886928831
1.214587007510483
1.189476422999749
1.229396896833338
1.126750111777869
1.12901089806047
1.121351275181243
1.091179609188832
1.100015226457838
1.095060911048792
1.095906816212475
1.083362540999094
1.091103635825195
1.067174283166713
1.067292886493383
1.064648390536642
1.086843929294212
1.087425257861282
1.055751691991474
1.057845712686681
1.072723486684986
1.08075198479786
1.065382732771141
1.06294007630425
1.084106320555148
1.081979642364517
1.06624451314051
1.073556898659041
1.061427007844197
1.063651526855855
1.085961677111964
1.072485941531427
1.104185270304272
1.126688817135779
1.119175805635945
1.089633370359745
1.09727081427599
1.094266893363045
1.094729065657804
1.06878631430277
1.052121672266452
1.05492793903791
1.07942104657553
1.05867479413845
1.061976528198144
1.066364624345585
1.101803217883488
1.080739713559445
1.074375662492091
1.093146995696394
1.114397686578923
1.086662845588692
1.085173872537567
1.245767411635836
1.265293240809272
1.243487497298783
1.267705361735076
1.198835630462092
1.223311279223195
1.224783150066424
1.247687818218527
1.271390637594618
1.269733795102315
1.249259323163506
1.220815905670769
1.240416672469663
1.212554719355791
1.198920303836044
1.197609143793116
1.238901523342291
1.222253392334776
1.177696192000133
1.159925407721964
1.161543969135644
1.199054387818059
1.177640084146247
1.197119606309291
1.179397222840827
1.219065157890662
1.234861702083261
1.210874504199095
1.194135959883116
1.216992345319671
1.196016695130857
1.237053283879598
1.180450305764646
1.164056367168764
1.162919636754848
1.2006916473511
1.182116745418316
1.180887596086867
1.202038528568234
1.128176547675465
1.139641401710917
1.131358924572202
1.098428405914292
1.101110486670285
1.096097509232314
1.103570180131172
1.090344354643668
1.072641840182441
1.069741803106379
1.09104484444982
1.094793001829074
1.08987726513995
1.092087270978092
1.072280657458469
1.067855279859581
1.069397426349054
1.08777632884141
1.094301240323826
1.058411170735316
1.059693988595309
1.07348390968552
1.087033482647293
1.06604153731885
1.06753408497418
1.085005625056505
1.076164990934111
1.059981138801579
1.087484613420962
1.067867535634008
1.088161369938173
1.140383010133502
1.133106076002851
1.132060003437492
1.098945655732142
1.10493195889864
1.099720618073415
1.104115429939464
1.10558285839485
1.081895369921829
1.0825302542499
1.127767879064665
1.126760305799213
1.095629310341551
1.096377407241473
1.150974114587175
1.164789851251056
1.158208049683812
1.17944872652277
1.167588902881083
1.160869678910477
1.14846676936474
1.129642458187743
1.143966688200487
1.142051737061651
1.141918893927226
1.158698223187026
1.156612928347948
1.143799798939849
1.138474413558512
1.127141501231418
1.132618377831102
1.14881310858394
1.125509267900288
1.146896388672082
1.140288574901947
1.107008587906201
1.105281240513057
1.114875707955171
1.127042589367205
1.113848203746525
1.11572497604128
1.124951773394174
1.139910258054605
1.137540406188227
1.125578603638194
1.13981474649469
1.151678935566617
1.154274602153076
1.137485059632819
1.136445606724103
1.142369679325834
1.13069396469175
1.121676511123887
1.123687843730242
1.144749698412764
1.134200017559523
1.153233550245578
1.182117048777203
1.172342034971064
1.165395846603506
1.170104062565652
1.163263696507554
1.155249161733451
1.17570008384486
1.166410924444002
1.189468815248707
1.194074319420655
1.169200115634408
1.197307849334305
1.172812803754947
1.159459341153947
1.145034309841996
1.138564241154871
1.15596267737785
1.14318080411748
1.153961371337603
1.161525588806382
1.182805125850264
1.187477500982488
1.208267861915616
1.208422533773098
1.205649295830239
1.185157030463041
1.18510036635394
1.160852713653269
1.145794873259412
1.141866672984323
1.160074292201005
1.144216347469427
1.158217937761308
1.162738398155261
1.157140493904579
1.149226129576806
1.136554766304753
1.138806751493759
1.141105951017793
1.151717331010028
1.154563761930693
1.178290524460049
1.192263479670712
1.173933449830957
1.202761575962179
1.171705227631886
1.20019947949578
1.180592473151796
1.180156844593823
1.199382485295029
1.205432069445166
1.179435450036534
1.202691983091629
1.177203027620494
1.182422876736097
1.29208409276422
1.28099410289282
1.277611210322426
1.295584702808533
1.297977055041342
1.298337703555378
1.293359912517097
1.30300984468332
1.288095922655792
1.269416247958645
1.273761538189199
1.283588234407811
1.252519452766841
1.236985851636167
1.213111866923347
1.219010736146225
1.240883794762285
1.222628612678146
1.248477224548735
1.264208197301316
1.271602304269279
1.235385790372428
1.235846343469325
1.232474257567363
1.267440003190843
1.268334596882547
1.256108864172147
1.247404892484853
1.216226313662005
1.228700755692981
1.244349642904844
1.225852775903362
1.259269476070609
1.260535309889728
1.260430814758224
1.225471662873064
1.232510499593158
1.229175854187245
1.256395568204267
1.264619664615994
1.246392396734055
1.266567302745444
1.253069181187698
1.234568823681849
1.209223284901008
1.206186557690614
1.240879324152963
1.214833494687601
1.211718815942363
1.24471264449956
1.200228690159624
1.191579922110648
1.216593814748756
1.233361226993375
1.196732397888995
1.222460685212802
1.205607106342237
1.282358767547211
1.293081611326532
1.288168284136555
1.287196445146163
1.272865696011099
1.264543024278637
1.278524858056376
1.25910653632917
1.238926828444787
1.201447648805418
1.232632453168145
1.214980502521336
1.243955765697486
1.227799013535716
1.210518817932483
1.246599094715627
1.219946254030082
1.255738404801026
1.221341396742468
1.251760431804005
1.216764042021439
1.250510294239887
1.210266586690011
1.229705223381854
1.216066801445894
1.235984033245047
1.151243072197928
1.153207572160126
1.137784808961353
1.155379662219254
1.14146145419314
1.174460185039747
1.157319663569938
1.180575082765116
1.203101276399998
1.167629902848822
1.192418855625265
1.185435506614069
1.208626190812171
1.172140259961525
1.175344684646954
1.179287501845671
1.198964754672158
1.203354695733338
1.221354084672468
1.246827484800034
1.2261483494289
1.241681526672704
1.197106749610093
1.189896154018147
1.218248521697472
1.180097439678204
1.201378535799293
1.213669455880279
1.176294693493906
1.148040334970709
1.162743969124187
1.144881670136176
1.178741703104672
1.16462080817833
1.182660778291529
1.161124262254437
1.164213242991644
1.1848368806409
1.182354701988495
1.166423211094059
1.189752947429605
1.18720433366914
1.168523418216396
1.141604140762969
1.123265030619398
1.136735148460785
1.145245282456676
1.126353415870997
1.13054661108164
1.140238175773713
1.177480406841252
1.17039142085992
1.152297388376524
1.162294330135422
1.174917692950894
1.182198981118121
1.156276841486831
1.166116306626045
1.179081280103122
1.163330880828301
1.190486265005354
1.16962061201043
1.186531460581892
1.159954203897389
1.15213238289593
1.137957795038394
1.139283787745674
1.157135577597487
1.136466091146004
1.155312599844934
1.153917571340171
1.148618912316026
1.129228889691993
1.146483998117887
1.13628093569366
1.13352738088488
1.151724440273881
1.143488310198949
1.170343626644409
1.194258490816911
1.195706939296983
1.17612862724238
1.173934689916432
1.191651715649536
1.172493679234512
1.125907479395192
1.138679427012983
1.125790743898303
1.117988026232721
1.12906206676097
1.129136484892205
1.142321164032576
1.111754369554451
1.118019507542135
1.130485441670109
1.12615630128123
1.120956890969889
1.114510531497708
1.133810083088388
1.161343578505162
1.150654193394481
1.144803409362376
1.139430960476619
1.165621480750807
1.154634512467374
1.148572218748814
1.142696309602288
1.169566414075532
1.161700761090629
1.155273647573221
1.145708187546596
1.158316657718334
1.152062442267189
1.110512500242664
1.103399037964256
1.112780711007356
1.120177826308363
1.111798380575061
1.109577754320325
1.12266306104683
1.134941452727585
1.123245573167318
1.13211429901035
1.132144959951442
1.148822473239373
1.134928460707916
1.145703186022786
1.129054549146549
1.123696069712925
1.139753720627374
1.119475396263877
1.117085793556057
1.131736347947977
1.136900411354466
1.159877289951671
1.189890591816666
1.178652221720835
1.17141986162017
1.177459042218607
1.170278972622332
1.160961130998384
1.134237735149268
1.145657641029607
1.1471274573108
1.146903474279442
1.160535188733606
1.162128558437617
1.145460301318241
1.143283714753232
1.12858582606528
1.150503597125697
1.137187228289724
1.129843855555469
1.141890724384332
1.151971682733222
1.123726799889435
1.114055848981085
1.124584266543706
1.134550972427002
1.123338218088605
1.122500218641524
1.135474857142116
1.158566675666225
1.188366084301622
1.174309606348529
1.167272027114043
1.176013283495085
1.15702538312613
1.168897962402696
1.149415243826996
1.148379056830228
1.136318186413443
1.148132385310181
1.164602118169
1.163482829585608
1.149149943522428
1.14447040188834
1.154255174128714
1.138316358824255
1.131808048631204
1.13091734415535
1.153221064195866
1.14545350088834
1.185846423815429
1.200381448397918
1.180214237643573
1.209930632997483
1.179026434592049
1.208581566323706
1.187070264355347
1.164922028734752
1.14666985587793
1.15772594797078
1.143326179648372
1.148090945919817
1.163344703891246
1.159255853824482
1.189006650748226
1.189563535421347
1.21056023638853
1.215384479680772
1.187221444158682
1.212537768667322
1.191367071740594
1.170166363535711
1.154243722612204
1.153601641847429
1.173290139261042
1.152580002742093
1.171296525820847
1.172148874864463
1.18436310055226
1.198792211960637
1.175891946738687
1.205005775888654
1.182614106332597
1.177587529232444
1.206942657745681
1.16626256379122
1.161632890561637
1.144501102132248
1.150303176905056
1.149300992481012
1.160556818532309
1.167370846220108
1.190520130954579
1.215586924418765
1.21707434989851
1.194156720573109
1.214210445144446
1.191768499149866
1.19289585744105
1.301229207730672
1.283935308877072
1.286455989647226
1.298625361524381
1.313639226410445
1.320686346844965
1.315459561489677
1.318845795003998
1.303414893202732
1.290300503677078
1.288573255743913
1.305196997877922
1.266376309495828
1.25586525358507
1.225215277776237
1.236621874372869
1.254286206867276
1.235137862697408
1.268004792873571
1.272668015263156
1.274446272753673
1.237927587030051
1.243569290178006
1.2702534487557
1.240114717929141
1.276886631162935
1.264386413904043
1.250068754868493
1.223462956532509
1.231188520889793
1.252357874318666
1.262022559868181
1.233330179745419
1.274699939543108
1.280620544623593
1.243474692255342
1.245433953661157
1.241960104325642
1.27636254103105
1.278940148085999
1.317915892759818
1.322123786819422
1.316880533246883
1.308254799749033
1.293577854809881
1.293266961455218
1.307600563359805
1.291649042322413
1.306587706316667
1.292631702482421
1.270221447004019
1.257105051854447
1.228628113449342
1.237791299987258
1.269282748548105
1.238655093506288
1.258016151640035
1.279251470604088
1.283850667596084
1.246415860377749
1.249645928823815
1.246128834892005
1.279559573659676
1.283540532137285
1.270834525633578
1.258905458443797
1.229179584432563
1.239504580731706
1.23922297181942
1.258611518232816
1.271136947642797
1.278625686880726
1.281939463931922
1.244668059174418
1.249060796125488
1.277667267833509
1.245549481572214
1.28290835901198
1.188761185716852
1.181155942835939
1.203493291847592
1.210997078295462
1.188040142143034
1.211787776764347
1.181856249595779
1.172862192611242
1.156707468267391
1.154414171897069
1.174196178253592
1.155020390913451
1.172193823123155
1.17487101546964
1.193979368101583
1.196633835594812
1.218278194429723
1.220916087001192
1.218013653661967
1.194221548420547
1.196389428887719
1.169341261725163
1.152287151276571
1.147211385444244
1.163757623435476
1.152090189842799
1.163547113005203
1.169557884242014
1.168906601463049
1.162487734761018
1.151100392010646
1.146827472761094
1.151695266846924
1.168250950107047
1.163124741764227
1.189238324163481
1.204000150514871
1.212569166737068
1.182550543198945
1.21230966740261
1.182319747240177
1.189475903394835
1.193492874729362
1.216674844449866
1.195155677665243
1.220378565140531
1.192757618477976
1.217481379828961
1.195898201608462
1.162462656634278
1.179597652247772
1.172324975309332
1.192880159040765
1.161821775729479
1.172998434924682
1.180300043105029
1.115142707473955
1.114677541210247
1.125267819688945
1.136759760071117
1.12400639582766
1.124505928050257
1.136210509270497
1.147206078957622
1.133575775426845
1.140923894699961
1.156298984698392
1.133400035836311
1.156096397408991
1.147399071890465
1.138001070731484
1.15125851329828
1.151460780614768
1.150961636530665
1.166805431275248
1.166587970178976
1.151160787503831
1.150238693287154
1.13706895722249
1.150852129319699
1.150561860146102
1.165490210229809
1.149958877231979
1.166150842628942
1.1468189464614
1.155077155080229
1.132517657301312
1.140554288284157
1.133047794640251
1.146235543511119
1.155689952900676
1.162887224415627
1.193367737498974
1.173666354882376
1.180995215818186
1.17344432409578
1.180764322139677
1.163098664935512
1.200697101129302
1.199906903197639
1.226790524282706
1.225940025477247
1.251980721463781
1.274546287604003
1.274245435016138
1.252269787546647
1.251393483486477
1.272686203674634
1.250491101047638
1.273632233802785
1.224220063802473
1.241607721354572
1.199956436294184
1.215832895128788
1.223385391823312
1.242484150444503
1.200723819069185
1.182882328840519
1.166070654945501
1.16629063889328
1.204403221366447
1.184524241913712
1.184287765785128
1.204658793094792
1.181434679273513
1.164957844299627
1.165627851436598
1.203886976096278
1.183089691311359
1.203101414074172
1.183811489406727
1.224767334192016
1.243340975621068
1.216363565666706
1.201480349547405
1.243057623250983
1.201229433091127
1.225038022659802
1.099079019022873
1.132181161389975
1.139136417749866
1.080775244346067
1.094626758734777
1.092077613637523
1.092645578622234
1.108709684661254
1.072050632097696
1.071383239483782
1.068704064955474
1.080445864638317
1.150071742457313
1.147717419935457
1.091234458899781
1.084273624558671
1.085489129389495
1.105960060473703
1.118296856130604
1.114984289268419
1.079578425673639
1.073401399530223
1.072354568460087
1.081945062132193
1.070556362574014
1.069433958117957
1.085668021244666
1.053323363973747
1.067133178240492
1.05868617595783
1.059291208862823
1.064484285284689
1.049424389671294
1.040377520651195
1.042339731580176
1.05203384869598
1.047524872876537
1.049202975832325
1.070567987699002
1.09027206829442
1.073443253367699
1.054126155001015
1.063081819363722
1.064096110813378
1.056183790687597
1.042910440225851
1.052799780351578
1.054751298539282
1.043929514103564
1.068117238985331
1.048203669051024
1.049414177735775
1.154030424184034
1.171003843247219
1.157011110918083
1.091810854897416
1.090906170575384
1.103465490550604
1.119687687346373
1.121939031137462
1.081241135557566
1.075209388230606
1.082956688919474
1.073094593794417
1.114147425538276
1.124001435364409
1.124512642536293
1.081715573181945
1.078141425132215
1.073496413250336
1.086546268695652
1.159707527829908
1.097091245055668
1.160147543324169
1.093170545405818
1.090483221546931
1.095456757684101
1.075973109066125
1.074218416627022
1.057665121852006
1.064330807753224
1.056744275273702
1.06483576960002
1.055278926393142
1.047510936074262
1.048226769687739
1.056476264541399
1.068820915949113
1.051193467323982
1.053493048561859
1.071307370836655
1.048895919501569
1.05674442857399
1.057148247862749
1.04900819191737
1.05513049292617
1.055329666130096
1.097016279414841
1.076364746536461
1.076953106538628
1.058525677080524
1.0661103263455
1.06948384154731
1.058742297644029
1.265253643944778
1.260733987280928
1.251958439340105
1.256331264250707
1.239038932182317
1.24338357108597
1.230976721578045
1.227637486319092
1.203098716596296
1.200151771485574
1.22006104620155
1.196449488650666
1.19360557634767
1.223573978411621
1.194370764110982
1.185981169361132
1.210178138710624
1.213174303861817
1.179933765015778
1.203200072096085
1.188027173207902
1.183196970644089
1.161378995776192
1.177065310168153
1.156037112143795
1.20393801704714
1.222818229178313
1.197073668483801
1.215302862842724