/*--------------------------------*- C++ -*----------------------------------*\
  =========                 |
  \\      /  F ield         | OpenFOAM: The Open Source CFD Toolbox
   \\    /   O peration     | Website:  https://openfoam.org
    \\  /    A nd           | Version:  7
     \\/     M anipulation  |
\*---------------------------------------------------------------------------*/
FoamFile
{
    version     2.0;
    format      ascii;
    class       volScalarField;
    location    "0";
    object      p;
}
// * * * * * * * * * * * * * * * * * * * * * * * * * * * * * * * * * * * * * //

dimensions      [0 2 -2 0 0 0 0];

internalField   nonuniform List<scalar> 
12693
(
-0.001202377202359033
-0.002255793447879082
-0.001373905160347124
-0.0008922490985747028
-0.01593863598567889
-0.0082475211213119
-0.004980470904970272
-0.002459504000318368
-0.0007316933415814099
-0.0006178343260045961
-0.0005351436841250336
-0.0004744630883883668
-0.0004299868406836065
-0.0003978990737870529
-0.0003756714793563109
-0.000361664322328335
-0.0003548921978792816
-0.05140750036826369
-0.01738302853830061
-0.1151615347991204
-0.1164771979739463
-0.1219143561652355
-0.1804535420709412
-0.158311159116492
-0.1076248461140129
-0.1233286754934233
-0.1825464138301306
-0.1898135453834857
-0.1283294226148277
-0.002224459213607072
-0.002086402266574662
-0.00211478124922394
-0.001772966614554351
-0.001675875016477714
-0.001754548562449301
-0.001655387108428298
-0.01499232772625157
-0.01109429869436025
-0.0116988292531522
-0.009497887477015363
-0.007894902179913331
-0.009138560100947097
-0.007624603711611297
-0.006976155237169292
-0.00796155042965551
-0.006755818981353088
-0.005603849768481398
-0.004934287306328194
-0.005452338606481073
-0.004810536956900875
-0.004431021820002094
-0.004856012105583415
-0.004327795002460065
-0.003594974555725953
-0.003278762344783334
-0.003523311436109479
-0.003217068602592756
-0.002422747661300996
-0.002262688618778786
-0.002295595133964869
-0.00325179191592985
-0.002985586469747645
-0.003191515212028788
-0.002933157347587235
-0.07276102952739692
-0.06310715256934504
-0.06057998681495236
-0.03844395103835224
-0.02164585041737795
-0.03483483225849579
-0.0200932048578616
-0.01629959522313946
-0.01185374433918131
-0.012514072923986
-0.03443219471049749
-0.02024699182200933
-0.03136464765584369
-0.01884604170146887
-0.1995656205350724
-0.1555500573315491
-0.1531555080212803
-0.2088522267855379
-0.1669439988547648
-0.09901908970319914
-0.08758028783381065
-0.08853885651487325
-0.1467305319881821
-0.07699329696035841
-0.1018991009912538
-0.1696429152462992
-0.2167571588854184
-0.159644753516311
-0.2113014364134606
-0.1627875560620045
-0.168870272418807
-0.1000557119188184
-0.09431347138443445
-0.09480780378934904
-0.1755818911585459
-0.1211361763131175
-0.1863061700770456
-0.1360979480369998
-0.1577488244463725
-0.1253423417705664
-0.1322781853649769
-0.1508787432063539
-0.1949656058799435
-0.1986073307271946
-0.1665773677625317
-0.2281038764336714
-0.1725641185621427
-0.1593092223288814
-0.2078163975710581
-0.2180341714077041
-0.2135087516250952
-0.2464084033770509
-0.2234039861374332
-0.2355579320332438
-0.2369037107105871
-0.232138377909706
-0.2206153801792904
-0.2094916475749923
-0.2311240554380941
-0.158836135976552
-0.1780710435470374
-0.195812880586262
-0.1446654591479767
-0.1819280555504725
-0.1522142510026203
-0.1767052022327224
-0.1948837020327658
-0.1693965520795202
-0.1564031815252808
-0.2139385159802547
-0.1196437617458226
-0.138211644038542
-0.1474796355437134
-0.1828191631979635
-0.1124282723292912
-0.1251861863856104
-0.1481397434367978
-0.2023719850426697
-0.1377189657024659
-0.159582851144866
-0.1256420508858424
-0.1972565446403654
-0.1403658899531686
-0.1637056584318196
-0.2156520345000253
-0.1685126355240393
-0.2307449274543714
-0.1872312450600128
-0.2102440376790239
-0.1728554004053623
-0.2366096822736573
-0.2317792098898383
-0.2492429505697203
-0.2260034542191593
-0.2555196821688296
-0.2330443506953378
-0.2589222866037765
-0.2349205787611665
-0.256891113385638
-0.2168403546992746
-0.1882665325149458
-0.2398053872320889
-0.1752551933645441
-0.1738170194770938
-0.2186079494074177
-0.2378952488293787
-0.2034982569419086
-0.1352065075870846
-0.1659882038640655
-0.1434300270207543
-0.1428174743210267
-0.1646199237926786
-0.2051750329579048
-0.2179547779116946
-0.1661581107582699
-0.1656801924326336
-0.2197326271757208
-0.09548337383890913
-0.1078713421342057
-0.09108119232395799
-0.07081812653698154
-0.1026536067688852
-0.08001760972866127
-0.1091169865106511
-0.1135492538952259
-0.1038172916412302
-0.08606344851674738
-0.0865096213968337
-0.1079610784521124
-0.2299794011896168
-0.2253548891883689
-0.214239120754895
-0.1545763538753439
-0.1731621181630917
-0.154109748796809
-0.1482095163152553
-0.1768980238441383
-0.1718491466111594
-0.1346377822503171
-0.1050418083402218
-0.1166611733775401
-0.1435891280335852
-0.00205009591097688
-0.002250603319793275
-0.002231767356487039
-0.002075357399797434
-0.002226654281787591
-0.002054469265221862
-0.002070946064000288
-0.00136849905618253
-0.001324550025203715
-0.001330829056323789
-0.001646599000247269
-0.001555129331310531
-0.001633457288058904
-0.001513162602564398
-0.01230607864587391
-0.01572914947448315
-0.01494064396568152
-0.01287148676645776
-0.01475039856710496
-0.0124002219345456
-0.01277191939714608
-0.006992545782799769
-0.008023545411978212
-0.00819903490247161
-0.00720833752501749
-0.007977074335175983
-0.007029890394300089
-0.007169504511424844
-0.004352703834015242
-0.004885290067690061
-0.004959550470462023
-0.004447889840715662
-0.004865005352916445
-0.004369482054755408
-0.00443062390026531
-0.002650473460271003
-0.002453404754373613
-0.002431578813509652
-0.002690206751092248
-0.002425588195682022
-0.002657512832649505
-0.00268302583877526
-0.05197641899140409
-0.02746243921994081
-0.02725124796969854
-0.04622215544730118
-0.02863491419867944
-0.02846353806089667
-0.04737835775933644
-0.02075780397063882
-0.01714289313582027
-0.01623187979144865
-0.02289772930487854
-0.01601484219397152
-0.02108565093614272
-0.02252836484831499
-0.162063362474748
-0.1643318514627592
-0.1885997838446263
-0.1911852085243483
-0.09281842011576937
-0.1120694708005454
-0.09667512262177184
-0.1469182070205242
-0.1405916148639202
-0.1140000130473946
-0.1188940623892321
-0.1663536125703503
-0.1681248979886789
-0.1954814226436214
-0.1934791952941099
-0.118630865343802
-0.1001051485370099
-0.09772228819204511
-0.1486116936425764
-0.1524260587787275
-0.123198139933798
-0.1202129365353167
-0.1289125349591609
-0.1272155556616301
-0.1203326179138852
-0.141897435205824
-0.1351231360561612
-0.1333622792748107
-0.1437932898455543
-0.1899073669434891
-0.178087097554483
-0.1951238306204459
-0.1780927389452686
-0.1757571040970702
-0.1924359711262111
-0.1925609318010556
-0.2774980931174864
-0.286171083397927
-0.2811129910156457
-0.2824989170609353
-0.2499556821862219
-0.2455519386488304
-0.252203681797818
-0.2567464162833755
-0.1671245649223476
-0.1437097567097525
-0.1472719391089546
-0.1713833372077688
-0.1562600101124355
-0.1685782486787909
-0.1709093846612074
-0.1728621391547076
-0.1622650920572302
-0.1601533865146283
-0.1752627797175383
-0.1135548530255183
-0.1264306345074742
-0.1190513095778753
-0.1100904759752615
-0.116208096693117
-0.1294639000103676
-0.1218509357450035
-0.1304290169016603
-0.1245721598146237
-0.1317615611981557
-0.1469642171804018
-0.1366938870646055
-0.1380720300048826
-0.1454829639621468
-0.1966258510593872
-0.1801532116654692
-0.1973922091937542
-0.1843726681866966
-0.1819565351873185
-0.1946746593986362
-0.1993687791151015
-0.2870332447103201
-0.2893940186271281
-0.2842870910132173
-0.2921814372245924
-0.202150135265837
-0.1895563229752087
-0.2052394295980335
-0.1873312616407863
-0.1870770780941279
-0.2024236043811428
-0.2049626422313681
-0.1357818780502985
-0.1355900482833196
-0.1281498838651293
-0.1512017491018265
-0.1422196752195324
-0.142022094768097
-0.1514132908353013
-0.1731579623675065
-0.1734052227057611
-0.201130701543999
-0.2014065254748664
-0.002041240054511203
-0.002240113585308158
-0.002200901995508477
-0.002048656836558171
-0.002216320227060461
-0.002062010905260638
-0.002028012733264908
-0.002000282951081913
-0.002154378783275338
-0.002100567600506736
-0.001928362291328481
-0.002169304753260325
-0.001940623487858895
-0.001987391771265185
-0.002008932685687788
-0.002184266539116038
-0.002110075219817405
-0.001953001312594018
-0.002179313847381784
-0.002013210362263524
-0.001948895108640822
-0.00189303688778035
-0.001915206523298511
-0.001756434086083181
-0.00176996982796744
-0.001753322629571867
-0.001896769694151371
-0.001911497028671882
-0.001856646756519186
-0.0018075280969374
-0.001723632233991911
-0.001672268321658086
-0.001720326183443193
-0.001860386564432644
-0.001803835808383034
-0.00188544366760151
-0.001892635237753847
-0.001763828796994908
-0.001737060401723708
-0.001746908655208281
-0.001903952667733461
-0.001874046325371051
-0.001849074986328004
-0.001785736888605003
-0.001665166792785979
-0.00170353211138279
-0.001713597777823085
-0.001796464433231649
-0.001837791284982351
-0.01212021893194937
-0.01559161436851384
-0.01341831625932685
-0.01228870471568964
-0.01462543787295034
-0.01257543187024114
-0.01184880502339269
-0.01124936461085214
-0.01279737929936532
-0.01065301558834446
-0.009832877899847747
-0.01401003912323294
-0.01003646842202331
-0.01100651798260182
-0.01141521223654779
-0.01430524997237539
-0.01163349936211258
-0.0102451715882412
-0.01412708018810208
-0.0101749975667002
-0.01149915366339437
-0.01057733455319395
-0.01101483083142274
-0.009213960858013726
-0.00943682595197718
-0.009155657028453236
-0.01065109751448594
-0.01093723916552726
-0.009886005062240671
-0.008973523380711411
-0.008666607828752572
-0.007849106946780709
-0.008613556033600442
-0.00891692321759073
-0.009952519179607688
-0.01043139071190688
-0.01055932664295
-0.009315865645189776
-0.008870672216043495
-0.009040110280329201
-0.01078379977005415
-0.0102177412055876
-0.009754271412889747
-0.008639807097594139
-0.007758183856319689
-0.008353903954027459
-0.008508332458007657
-0.0088047304528476
-0.009561101158775447
-0.006649171668908926
-0.007590308721728885
-0.006938899213972387
-0.006190439307235529
-0.007547691132373853
-0.006683660847650093
-0.006159945762232388
-0.006918301556273615
-0.008102829840656403
-0.007749335403171153
-0.006978788064442326
-0.007884833461610135
-0.007092328610827247
-0.006809044634653123
-0.006580554454588603
-0.006864811899371975
-0.00733860803185897
-0.006009694243356625
-0.007463036785185066
-0.006099206404324828
-0.006479521967488315
-0.006164247987903531
-0.006337998487559731
-0.00548744690515877
-0.005578329555985354
-0.005462762802601087
-0.006194496315454399
-0.006306640000419222
-0.005887182230316763
-0.005515819366981398
-0.005260400458479756
-0.004913497376913233
-0.005237329861153435
-0.005915294363946159
-0.005490712081240284
-0.006104015181233803
-0.006152223551996443
-0.005527448788337809
-0.005340840028025253
-0.005413532054119501
-0.006244218413778545
-0.006015223283455116
-0.005831162702699658
-0.005366677425831905
-0.004871955502421511
-0.005123261629984267
-0.005191284363161366
-0.005440621076552331
-0.005748537951835756
-0.004200043531535596
-0.004699213316331249
-0.004413713806455374
-0.003993797855252214
-0.004680158742800424
-0.004215875599010308
-0.003979314608863084
-0.004319137895244781
-0.004917775462620733
-0.004764565830225513
-0.00434496800088599
-0.00482448610402763
-0.00439609363405119
-0.004269429647265599
-0.004168348874925589
-0.004379077333842944
-0.004585718378929974
-0.00390725506755599
-0.004642070202837464
-0.003950288279332225
-0.004121391696092032
-0.003911277450035021
-0.003990275707760679
-0.003540683315031592
-0.003582998062726963
-0.003529000700357634
-0.003925239193836102
-0.003975936712068055
-0.003784353867768855
-0.003612506297724682
-0.003433926492606876
-0.003268474942619315
-0.003422816648195898
-0.003797582021348452
-0.003600327838264015
-0.003883304179091503
-0.003904636790366725
-0.003558974257928391
-0.003470754201916019
-0.003505559042536946
-0.00394721683300294
-0.003841823030294764
-0.003757832772124676
-0.003539602152035541
-0.003247797851911318
-0.003367377730379686
-0.003400509800868415
-0.003575885104723284
-0.00371848942755238
-0.002636286375829179
-0.002441097290463851
-0.002395471509671693
-0.002647006264958725
-0.002413497688527026
-0.002668557266193632
-0.002615152518330246
-0.002572543845978421
-0.002341561295649296
-0.00227912134735116
-0.002460230030602144
-0.002358943305664802
-0.002479349412353792
-0.002552230789230552
-0.002586176774439009
-0.002376375041353349
-0.002290140904938245
-0.002498531147231788
-0.002370601119690357
-0.002592937430813082
-0.002492176090817458
-0.002905652770045966
-0.002952454828004103
-0.003206200004339234
-0.003241736811594264
-0.003196375084600194
-0.002913952706165481
-0.002943974104346091
-0.002830056787046062
-0.002727144053159863
-0.003116400179094866
-0.00297685918401676
-0.003107024947124961
-0.002838002513214261
-0.002719710710486549
-0.002888949432769687
-0.002901524353341168
-0.003221537137836784
-0.003147283491202045
-0.003176631825676438
-0.002926911887792386
-0.00286409238394989
-0.002814056554635522
-0.002682412918355366
-0.00295929267193118
-0.003060141243026475
-0.00308817342016625
-0.00270472753934873
-0.00279023873343042
-0.07471499876335343
-0.09322172601910045
-0.05157150712030933
-0.06204498429055547
-0.05288930810789401
-0.06043583637254197
-0.06948626558512819
-0.09227517640363452
-0.08273300225369422
-0.05069661806573168
-0.06208863859350115
-0.05938197813630993
-0.05713494466198814
-0.04838583663586872
-0.02828451979396822
-0.02518934956355566
-0.04549820328049153
-0.03337548127348029
-0.02739028927484955
-0.04029436426126857
-0.04612054628899067
-0.05471811423585869
-0.03421972022567739
-0.03763410957277846
-0.03352993883354076
-0.0472361390958833
-0.05336719180114605
-0.04172700433216275
-0.02457462726826495
-0.0316112789454312
-0.02147119590832189
-0.03099434108301161
-0.02436132979793242
-0.04270173464693858
-0.04539262727208183
-0.04248184753871049
-0.03710503655035298
-0.03294883204689278
-0.03307924506396694
-0.05248449265817898
-0.04068319751668092
-0.04109610867643895
-0.02269261406621008
-0.02079166005820804
-0.02852729864283423
-0.0305912149777154
-0.02353581402915152
-0.03109572698106863
-0.02054263563487823
-0.01698503856752072
-0.01576872341350194
-0.01915886910276915
-0.01587207978813772
-0.02228608941733119
-0.01868755114114342
-0.01944195489916532
-0.01378044994948539
-0.01215420111382688
-0.01353191166534587
-0.01516339947572691
-0.01390140262406923
-0.01605090438248753
-0.0196402391180767
-0.01549922933526684
-0.0124412848378344
-0.01434741543350685
-0.01529668765191584
-0.01425690754148416
-0.01994224273403521
-0.02273515595458407
-0.02523927949075407
-0.03090138540787942
-0.03374484811615886
-0.03031029116115498
-0.02311342855046578
-0.02481009181300052
-0.02143009715659972
-0.01761415093699979
-0.02870978040869119
-0.02008990079958206
-0.02817743824403517
-0.01752989800090618
-0.02177681344295931
-0.02248712004760912
-0.02566340552836075
-0.03329548016797385
-0.02699261201866718
-0.02992373510077706
-0.02452881654765791
-0.02453014782106051
-0.021202672169239
-0.01852921373720822
-0.01947736294614721
-0.02406456986571977
-0.02782923823010056
-0.01703572268016715
-0.02038677426450795
-0.2131835974000259
-0.2381414257057015
-0.2160574439412865
-0.2350145133935294
-0.159553248241939
-0.1568084230985085
-0.1857239024687142
-0.18255962914962
-0.2099739394764699
-0.2276243763855421
-0.231511323653991
-0.2064256489581246
-0.1979780895923735
-0.2134061051215445
-0.1829593756085831
-0.2029877790897846
-0.1861037957324971
-0.2170639703955085
-0.1946274019872411
-0.1577147262448327
-0.1506486135891517
-0.1485968492377792
-0.1791812149813294
-0.1719192255786074
-0.1816371884558459
-0.1696009924625579
-0.1463281799391276
-0.1438485075304109
-0.1505373844204627
-0.1764514511268676
-0.1641990011493883
-0.1670266586854559
-0.173450266396126
-0.2010127526216643
-0.2233172783802939
-0.2060821911255317
-0.1915150323341406
-0.2037329862204906
-0.1889555564755241
-0.2203659063949193
-0.1547125777224008
-0.1597071330497334
-0.1480303865935479
-0.1191431560001317
-0.1327113707175392
-0.1242876967229485
-0.1271767764557785
-0.1109886957669822
-0.123151885137995
-0.09379596174039019
-0.09518755827605199
-0.09020387088632163
-0.1156943250272162
-0.118100451839066
-0.07359963113702259
-0.0763943731567073
-0.09114212905895963
-0.1064285292118625
-0.09043235530548981
-0.08699500037694775
-0.1109119159455648
-0.1091322377489952
-0.09368119084538978
-0.1007653766551805
-0.086237934169274
-0.08879346365462119
-0.1161033907670729
-0.0988357208233451
-0.1313680957469182
-0.1568124553703858
-0.1453673373009643
-0.1171092935409679
-0.1263593275302906
-0.124983380206031
-0.122178884148815
-0.08618678282917278
-0.06880924258503485
-0.07250727285805196
-0.1046622927348453
-0.08105267830985138
-0.08564644581636728
-0.08784489832966595
-0.1212859592738512
-0.09919750145953105
-0.09130845448823564
-0.1063524510715519
-0.1380766406689427
-0.1120684063602933
-0.1064728874689399
-0.2208100895173161
-0.2408990327525461
-0.2185985956829484
-0.2432935168266035
-0.1709055888842664
-0.1971918662204243
-0.1986106312555699
-0.2226945770144612
-0.2470126566444577
-0.2453300255113047
-0.2242542324494468
-0.2100279138264652
-0.2317144065925033
-0.2152509042563413
-0.1988527056730492
-0.1974506734707355
-0.2301180100047769
-0.2115110314622239
-0.1613365818583718
-0.1524789144138473
-0.1540842771115526
-0.1857230565989401
-0.173979568092046
-0.1838180241542351
-0.1757809377401679
-0.208238460418665
-0.2259233156543967
-0.2134332740518806
-0.1937831856271768
-0.2061408327098714
-0.1957612821533755
-0.2281888299508918
-0.1639957328188699
-0.1566103883559647
-0.1554620783479456
-0.1873520187208131
-0.1786046787502001
-0.177322728286414
-0.1887048996926339
-0.1564971366895336
-0.173192428029179
-0.1605103016395822
-0.1288016060203672
-0.134197169748837
-0.1256719214718812
-0.137551162767301
-0.1204769031237691
-0.1029355266238872
-0.09747521647682596
-0.1214401802677098
-0.128269743788392
-0.1198355666229779
-0.1245110977808452
-0.1024089603727402
-0.09476905321792921
-0.09698008844724242
-0.1169629860358488
-0.1275844089522488
-0.07715410969107714
-0.07888585441969899
-0.09210992997067011
-0.1148654927967226
-0.09136425920294471
-0.09348311736689897
-0.1121222817885437
-0.09555194000163307
-0.07927493349788982
-0.1154784524258809
-0.09395788311871554
-0.1163994561117189
-0.174149684422278
-0.1627341037152152
-0.1614007615276815
-0.1294994463159837
-0.1394184482552447
-0.1305469888958601
-0.1382980115851844
-0.120633808230168
-0.1006394072913124
-0.1014434671590235
-0.1545432964169057
-0.1532735355254168
-0.1238643904240961
-0.1248649450544428
-0.16351918189287
-0.1716369619034902
-0.1737409965231503
-0.1894922292875562
-0.1745727367814997
-0.1766952652035011
-0.1607897181875656
-0.1342829060743167
-0.1433845148295433
-0.1414503905078476
-0.1508305359085332
-0.1622755446992789
-0.1600987530727992
-0.1528656669791084
-0.1553243251998217
-0.1471710241175266
-0.1556858181737758
-0.1693692544492858
-0.1452485677453749
-0.167137644908124
-0.1573997089573083
-0.1185876309878695
-0.1166844200843099
-0.1232981043745147
-0.1397983594453188
-0.129283889460397
-0.1314145176645945
-0.1374999068733002
-0.1393129182974021
-0.1369777180038667
-0.1300891879784823
-0.1485750319132548
-0.155034000423832
-0.1576838406349605
-0.1461027140262702
-0.1530209418857194
-0.1619259333823349
-0.1533951122391408
-0.140780906517565
-0.143117521968073
-0.1646561695256846
-0.1504920051736591
-0.1660017293139501
-0.1923781750666581
-0.1796352904072831
-0.1817829495217797
-0.1772390924031852
-0.1793758820884743
-0.1682356743778823
-0.1962968625216528
-0.1845863841711926
-0.202001804785793
-0.20817224424109
-0.1877276304770654
-0.2117279775095374
-0.1930110988046332
-0.1846753014254649
-0.173418974815566
-0.1643979607284874
-0.1793743264537044
-0.1711499033365605
-0.1770132729642409
-0.1871361072945131
-0.2052113306558398
-0.2110010730353953
-0.2246366927031622
-0.22510972009183
-0.2216847374970807
-0.2079478693226009
-0.2082264518053771
-0.1870866189033955
-0.175463045837787
-0.1703032702725101
-0.1865417836917478
-0.173162521017321
-0.1839719656448513
-0.1897009566345249
-0.1819320777381642
-0.1714865182433179
-0.1619748607414121
-0.1658438661893243
-0.1686247227027056
-0.1743840345171297
-0.1789053664794296
-0.1992688879185376
-0.2050702684447834
-0.1931233100386414
-0.217806069859277
-0.1905727073962197
-0.2149374642529688
-0.2019301666158035
-0.2021529183872729
-0.2147135399724228
-0.2217555466744279
-0.2016902698559677
-0.2183792068960443
-0.1987687235597616
-0.205124313069789
-0.2676820470111302
-0.2567125933240153
-0.2533743271203309
-0.2711844779362051
-0.2734272188156404
-0.2737395069331164
-0.268882922193381
-0.2783612966457658
-0.2637421849795089
-0.2454545343788591
-0.2496255180463497
-0.2593498657068969
-0.2455970718730478
-0.2291899092173221
-0.2171625677891081
-0.2243599382424743
-0.2331045834512868
-0.2281932781615003
-0.2414829278747355
-0.2579699471441134
-0.2658264810849572
-0.2424736544048349
-0.2431893154019155
-0.2393012662327624
-0.2613646316646703
-0.2623801284754905
-0.249294873972373
-0.2397733400790969
-0.2204589687142508
-0.2347262170286913
-0.236629487841455
-0.2316459721560733
-0.2525877833046302
-0.2541539875672179
-0.2541841750158742
-0.2317860903663968
-0.2395760021938565
-0.2357419883097686
-0.2499033649648698
-0.2585041607739345
-0.2242902518307002
-0.2432844703576875
-0.2302796758402307
-0.2282554659394241
-0.2152219745072478
-0.2118003470490156
-0.2343945714222963
-0.2209654265104407
-0.2174387450434435
-0.2383981920307344
-0.2050626054855499
-0.1952156991100319
-0.2094576034619358
-0.2265182218161629
-0.2003479533493143
-0.2150176860510229
-0.2104948601788069
-0.2582935656885615
-0.2686123864177998
-0.2638455770062108
-0.2629564826929604
-0.2491396143447993
-0.2408487587485136
-0.2544883834063615
-0.2357949354166621
-0.2319560754743211
-0.2051060249921023
-0.2248763977509453
-0.2201375932888323
-0.2369401596943194
-0.2201550747647058
-0.2155182228765049
-0.2400390697566894
-0.2262633190665259
-0.2494044011234954
-0.2274234481811468
-0.2452035096146784
-0.2226440481420658
-0.244148096113867
-0.1888249879121064
-0.2080934624734386
-0.1937343033767048
-0.2135863796428894
-0.1380281616852668
-0.1504632057311173
-0.1319988340036297
-0.1414350260283323
-0.1352280245327835
-0.1628652848579665
-0.1542453537388145
-0.1825612714400587
-0.1951262197283549
-0.1674890917617199
-0.1826782832952271
-0.1873098338182046
-0.2002494231262309
-0.1717828365089275
-0.1506542229082393
-0.1538380927616817
-0.1753824130589769
-0.1791105795517267
-0.1983058967638451
-0.2233460246339219
-0.202536611923444
-0.2186688861241484
-0.1869761216186052
-0.1917277120833509
-0.2093871647507176
-0.1795228502418369
-0.1909599164696188
-0.2050026761853024
-0.1757961061664763
-0.1411653415262782
-0.1477038901425553
-0.138288044181809
-0.1666505083311709
-0.1611220952885288
-0.1701814290877851
-0.1578016501757357
-0.1845781932965685
-0.1993497389670869
-0.1963374745282906
-0.1866342521375084
-0.2046000784989593
-0.201496291097077
-0.1893641497566237
-0.1639822397041066
-0.1462860044639094
-0.1572527556244983
-0.1681292507767608
-0.1498853676226327
-0.1559882947707457
-0.1611995884698368
-0.1904032043993683
-0.1817255122390491
-0.1690631252863333
-0.181254450811736
-0.1864420721066824
-0.1953821298709339
-0.1733831140088674
-0.185490189924947
-0.1908287830770438
-0.1811480519841216
-0.2042652296555253
-0.1894092686539597
-0.2000027425461562
-0.1774129362988422
-0.1768584613947893
-0.1659622854202984
-0.1671802222746389
-0.1830820890859774
-0.1637955867656156
-0.1805624673187287
-0.1793218180002713
-0.1720019526764509
-0.153260183613551
-0.1683215518884818
-0.1628087308005871
-0.1595220428865993
-0.1755949622442138
-0.1648912707804482
-0.1910107527153583
-0.2094621555680835
-0.2106813606206585
-0.1979204678590589
-0.1950554159978095
-0.2062770097230272
-0.1938121101625444
-0.1341614757944215
-0.1421978304158046
-0.1258241954227287
-0.1224896029727272
-0.1288638365873765
-0.1374390368021584
-0.1457268195995406
-0.1294789227937634
-0.1386383526526185
-0.1485812049119807
-0.1415934705910359
-0.1420126744129886
-0.1325841869921621
-0.1522704754167311
-0.1705653136920289
-0.1572575390509314
-0.1592258184738118
-0.1511541738487534
-0.1749454601179407
-0.1612377725369046
-0.1632512752484956
-0.1546022834533519
-0.1790315658073588
-0.1684335085688866
-0.1705138823387448
-0.1578160606227634
-0.1649654818741147
-0.1670160220764
-0.1187228770366387
-0.1146289618365773
-0.1210891268063233
-0.1323257768879361
-0.1269754200974386
-0.1244952788631091
-0.135006988812038
-0.1344517969987659
-0.1277225301766931
-0.1317437362209027
-0.1405278255717084
-0.1521536441247787
-0.1434182849412288
-0.1490486831819608
-0.1447726893552293
-0.1451824202523689
-0.158949022075528
-0.1382427410627857
-0.1355082666254188
-0.1477409943217361
-0.1557288346070415
-0.1734392073216519
-0.2009576391783283
-0.186523188404501
-0.1886938643393707
-0.1852045244930224
-0.1873713887224457
-0.174674094462672
-0.13914251167462
-0.1451108565648183
-0.1466259649863137
-0.1562650022235734
-0.1642119802619381
-0.1659065487173841
-0.1546777910839067
-0.1608604906050909
-0.148882673660629
-0.171350596143663
-0.1611871742181461
-0.1503819288968198
-0.1592454464147305
-0.1730817441532251
-0.1329074312898229
-0.1265361663536029
-0.133864497704746
-0.1482353840257813
-0.140243262669272
-0.1392556382111445
-0.1492952656021496
-0.1719546156406534
-0.1992531726479241
-0.1817612884642776
-0.1839171660685752
-0.1836174855299011
-0.1702200969328093
-0.1857795772089449
-0.1490125498268925
-0.1479271901487497
-0.1413870426178122
-0.1576259547842395
-0.1685665602686576
-0.1673582677725811
-0.1587597467812338
-0.1622442307067612
-0.1757951327045542
-0.1625614623577765
-0.1527392195948208
-0.1516676869681775
-0.1745630712656052
-0.1633963775421141
-0.2080823328503944
-0.214158551743323
-0.2004250768962331
-0.2259725734511457
-0.1990302240764687
-0.2244180869059592
-0.2095329101753207
-0.1912171112116939
-0.1754321685273499
-0.1814678959091997
-0.17020380220509
-0.177190139221608
-0.189316091206072
-0.1832950422908163
-0.2124716733452266
-0.21345271104411
-0.2272414394569414
-0.2330392426107185
-0.2103666424609782
-0.2295048769178084
-0.2155857626246242
-0.1982919626335468
-0.1859337786370229
-0.1847799681290125
-0.2024570137726421
-0.1834983437198253
-0.19967529425388
-0.2010562097123259
-0.2063336604770402
-0.2123569334887082
-0.1953815676464878
-0.2203391167283322
-0.2042839874296065
-0.1973497787584906
-0.2225416121562321
-0.1928410957281239
-0.1861550616387646
-0.1716512139307902
-0.1799440889730669
-0.1786937790099436
-0.1848569999803643
-0.1941899299594306
-0.214266720021947
-0.2330283352243648
-0.2349925004311518
-0.2189120183761594
-0.2314322889649771
-0.2157552020806081
-0.2174043040230394
-0.2769278634624807
-0.259650717799085
-0.262197663231314
-0.2742626722677624
-0.2893619693535072
-0.2964923061407295
-0.2912816440806466
-0.2945445583634469
-0.2791892541411631
-0.2661459835004539
-0.2643608007855749
-0.2810541692972049
-0.2601338799915109
-0.2486848445647722
-0.2301866191701277
-0.243464466692443
-0.2469943622704338
-0.2418051999506567
-0.2618972240686779
-0.266936427419146
-0.2688560334373661
-0.2452681510128233
-0.2517015679567072
-0.2643500028876558
-0.2476927836376041
-0.271479865196303
-0.2579989624699854
-0.2425441878625599
-0.2282627473128673
-0.2374416990753821
-0.2449491688535023
-0.2554861376113841
-0.2397993459561455
-0.2691326288938979
-0.2755459787900588
-0.2514592912102672
-0.2537916962018428
-0.2497545104261706
-0.2709458366595386
-0.2737072837783728
-0.2939223366866139
-0.2980320583549242
-0.2927992968957419
-0.2843377806642496
-0.2696323198199478
-0.2692912361609635
-0.2836201532851196
-0.267558270814827
-0.2825288324288076
-0.2686036848409588
-0.2643319435403518
-0.2500251900078622
-0.2339862054726494
-0.244781857696703
-0.2632945889104248
-0.245762248618629
-0.2510205596218899
-0.2741522592373459
-0.2791501146366818
-0.2548173574122108
-0.25858652936129
-0.2544856119364852
-0.2745016885474278
-0.2787966488275076
-0.2650167091347552
-0.2520046647879432
-0.2346098218741432
-0.2467345155592487
-0.2464112223360463
-0.2516777740332365
-0.2653571262970476
-0.2734485970044011
-0.2770025542235539
-0.2528124391461164
-0.2579114388150005
-0.2723823444667959
-0.2538192652960113
-0.2780835722389678
-0.2115507079795383
-0.2015364534308927
-0.2177266782579401
-0.2272087865026195
-0.2106881202261402
-0.2281304952828759
-0.2023666023853514
-0.2016022532185686
-0.1890410815880633
-0.1858027360537434
-0.2035735310352363
-0.1865679854299648
-0.2007780168605577
-0.2044080046505246
-0.2184124591665951
-0.2218998017358674
-0.2361831339588245
-0.2394888142323002
-0.2358704014633301
-0.2187055720908633
-0.2216030948357057
-0.1966040275129581
-0.1824340872875834
-0.175015934465702
-0.188736997955674
-0.1821859405708773
-0.1884798894721475
-0.1968708776954253
-0.1960694930764179
-0.1871905608651064
-0.1809421228316752
-0.1745368746432482
-0.1816890036536945
-0.1952654431581212
-0.1879649547468102
-0.2121235708806923
-0.2183146448753701
-0.2290466784819042
-0.2031932892621697
-0.2287417946811524
-0.2029180470486955
-0.2124094555727345
-0.2178249815992431
-0.2342972379300673
-0.2201122562191486
-0.2388534918720939
-0.2169402671911134
-0.2352431467589086
-0.2210082185630479
-0.1763970165793544
-0.1875744648973678
-0.1897483538929501
-0.2043388322694995
-0.1756597470527572
-0.1905364620002424
-0.1883598091507702
-0.1277909621835558
-0.1272528495709262
-0.1346311892545318
-0.1507785216307925
-0.1410338774771534
-0.1416268793419716
-0.1501430850440846
-0.1654649789700171
-0.1548797494825661
-0.1657604905238767