/*--------------------------------*- C++ -*----------------------------------*\
  =========                 |
  \\      /  F ield         | OpenFOAM: The Open Source CFD Toolbox
   \\    /   O peration     | Website:  https://openfoam.org
    \\  /    A nd           | Version:  7
     \\/     M anipulation  |
\*---------------------------------------------------------------------------*/
FoamFile
{
    version     2.0;
    format      ascii;
    class       volScalarField;
    location    "0";
    object      Phi;
}
// * * * * * * * * * * * * * * * * * * * * * * * * * * * * * * * * * * * * * //

dimensions      [0 2 -1 0 0 0 0];

internalField   nonuniform List<scalar> 
12693
(
28.67804525234058
28.84056568171717
28.67801445319629
28.35292880366183
28.92126643694781
28.83999853776168
28.84031271263133
28.84054734555645
28.35298304342147
28.35302134864391
28.35304868830885
28.353068243541
28.3530821654888
28.35309192076662
28.35309850230446
28.35310256329867
28.353104500139
28.01499652802302
28.92119279794746
28.31963756670493
28.31880630145692
28.31195672756199
28.95657199966276
28.95731840320759
28.32184135917096
28.31103454661693
28.95650310787374
28.95626506227302
28.30784215313852
28.84056830218781
27.86433351192302
27.86431452241652
28.84060862869649
27.86462577638328
28.84061018967233
27.86463775817684
28.92131007590623
27.77425747124347
27.77366089409669
28.83987650804774
27.85965369490357
28.83990894414993
27.85986711687143
27.86045826476223
28.84002418421974
27.86062823249253
28.84025339212872
27.86216056228679
28.84026677831857
27.86225097817467
27.86256206198641
28.84032365790802
27.86263642888575
28.84044302225239
27.86345406468042
28.84044923226105
27.86349704993359
28.84055045017133
27.86420603030868
27.86418380693276
28.84047486091778
27.86367481832398
28.84048005599086
27.8637110301004
28.3566299107379
28.6211513778372
28.27561664889093
28.92007998028353
27.75848966807882
28.9202568903085
27.76070978114871
28.92124303414555
27.77336134540967
27.77268414063667
28.92029871015033
27.76118571176771
28.92044761188739
27.76307580083443
28.55853667305148
28.2553123687943
28.25728672506395
28.55503436081791
28.95718567615384
28.95982382483047
28.34452962466896
28.96012124513085
28.95784824414535
28.35179462587139
28.3284631857722
28.23167306447166
28.55214829584653
28.25204148405307
28.55413269939982
28.24960991080903
28.95712384822544
28.95979467967056
28.34070165731111
28.34042656259832
28.95690954365603
28.31591931711525
28.56739709985485
28.29325381639651
28.58494302141377
28.30567795899689
28.29598324751036
28.58720344993517
28.56425321723774
28.66314565966714
28.67725102690086
28.95408749767447
28.95683430297662
28.67903902921546
28.66065366232369
28.95445429980661
28.65599900087848
28.9529667828022
28.6532210230936
28.95337606745587
28.74591576865686
28.95300231142093
28.75270049793544
28.6571538927254
28.95354649927473
28.36431059115866
28.45927157563686
28.55999094841102
28.26469929230188
28.86147694115326
28.77372310587036
28.76724110346596
28.66417455252703
28.9569407991587
28.67976417312778
28.95460597638066
28.30566625565405
28.49484945233866
28.48786958526777
28.56869373929962
28.31840266376564
28.30129144037212
28.58811950868719
28.56164172061204
28.29212134477092
28.58434861267068
28.30954643332999
28.56343911980434
28.29030245854384
28.58302455885088
28.6585853551437
28.67678114061525
28.95399260622404
28.95634962980085
28.66000889702004
28.67573470097878
28.95378240028123
28.65093367420858
28.95286149149557
28.6525064725051
28.952628611035
28.65058784248058
28.95250163154598
28.65006555656904
28.952577038959
28.65827216455391
28.9563157268025
28.95366743062254
28.6751568800828
28.67550367781561
28.65780048794543
28.95373593101339
28.56124669783942
28.29904830742728
28.58229371124935
28.28822820893246
28.28864276326879
28.58273229176428
28.56065247142104
28.55171265490257
28.24703593640294
28.24740408816505
28.5510559627527
28.23334174882012
28.22251543432728
28.24048162876134
28.26585745057672
28.23080030207723
28.25787885355455
28.22150241559365
28.21799269434404
28.22988612085456
28.25365190825943
28.25334787645549
28.22670873402148
28.74752134966956
28.95328877145554
28.7541008648991
28.3675547947973
28.46212330448756
28.95746329091988
28.77443592300405
28.862041131767
28.76817082136099
28.49653101085183
28.32373745673583
28.30810324695369
28.48978491006033
28.51519454174646
28.84056612643294
28.51514323079889
28.84058180283185
28.51514461171502
28.51519336530534
28.84058217857122
28.6780160669371
28.02751173051296
28.02750633545247
28.84061988124521
27.86470879818023
28.84062124543899
28.19007051944427
28.51210766974603
28.92127612416003
28.42919010342728
28.83954320405556
28.42925657198205
28.51208046148422
28.83955238888744
28.51374489800348
28.51343379433014
28.84000291670455
28.84009927296072
28.51344682890218
28.51373448802851
28.84010276384166
28.51453052585365
28.51437418478158
28.84031457282967
28.84036308610097
28.51437976679782
28.51452592327029
28.84036461604867
28.5150240149845
28.84054787188834
28.5150865186578
28.84052641506248
28.51508814173854
28.51502210382275
28.84052703843351
28.01435754836485
27.67787865219173
27.67862973471206
28.24475283178985
27.73710880650549
27.73750339395438
28.24406989632168
28.42688369663439
28.92120396304335
28.42869198218342
28.92091010563739
28.42876829038225
28.42676538094804
28.92092751799405
28.23794427002365
28.23601982903313
28.33400790709591
28.33228137429537
28.34001518345784
28.32162253662568
28.33774104817089
28.59011342932405
28.59213682855146
28.60357954495617
28.60212620681749
28.23434105874002
28.23289574948732
28.32948186099949
28.33077654423028
28.31746206202013
28.33576420859323
28.33713301261845
28.58957903725255
28.58838552149819
28.60086581193078
28.60173825787987
28.30322206015246
28.30438068359021
28.31299975956427
28.39530868302124
28.40221308339319
28.40314280345918
28.39427481017815
28.86135025593004
28.86319850242478
28.9558642382682
28.95665004802032
28.86343145042767
28.86109037175492
28.95595133506163
28.84432821622074
28.95007689089519
28.84388749397034
28.9502247195021
28.95160073136435
28.84842808756402
28.84754499423993
28.95130391801323
28.34983176547215
28.25548950300914
28.25176899441666
28.34646302273771
28.86542552216547
28.86359997226684
28.95670564199483
28.86314042315723
28.95718289731246
28.86502139572833
28.95655147702152
28.31429769655295
28.40418312527877
28.41104322236735
28.3200618052701
28.31228831890665
28.40238140981789
28.40945040644685
28.30219966176524
28.31023164978199
28.30131098203397
28.39257075691629
28.40139147765599
28.40067642599627
28.39336298402201
28.86066279064075
28.86299290699993
28.95578751343157
28.95644319450212
28.86281413766527
28.8608614825541
28.95572088871913
28.84317413785525
28.94994810980593
28.84350399832181
28.94983711417541
28.86010048298544
28.95627342211662
28.95552318042972
28.86228221334082
28.86230748815114
28.86007248090306
28.95553235228995
28.29867238713141
28.29879780550656
28.30795576346179
28.39033105496763
28.39854908662512
28.39865026398859
28.39021923020699
28.22885216671173
28.22864878462866
28.32586003556316
28.32567766307477
28.51519686912214
28.84056700381167
28.51515140956234
28.8405840088939
28.51514734960407
28.84058291789945
28.51520031097614
28.18981461431749
28.18973888766839
27.86432407624507
27.86444660426708
28.18973210589367
27.86443854466188
28.1898203857023
28.18981071723373
28.18972523314413
27.86431772187964
27.86443037435112
28.18972753569169
28.18980875006551
27.86443311353884
28.51523887115211
28.84059602772076
28.5152774972097
28.8406089018485
28.51527837434316
28.5152378643993
28.8405963460018
28.18988470132768
27.8645335074356
28.18994933206742
27.86462787028321
28.18995081811567
28.18988301103244
27.86453586679534
28.51524084984739
28.84059787856496
28.84060943016431
28.51528250729211
28.51528007266046
28.84059696823244
28.51524374814512
28.18988802829861
27.86454737815213
27.86463188824278
28.18995783963689
28.18995369444512
27.86454051108614
28.18989291702644
28.51216118981586
28.92128246676283
28.59370688104645
28.83959676437134
28.42930011382598
28.83957043439566
28.51223933043801
28.18484056263188
28.10177011078239
27.77481577339764
27.85783227201223
28.26536870263344
27.85766095190131
28.18496760986772
28.18475359599524
28.26522938465138
27.77372675920955
27.8574841731327
28.26531353594184
27.85754370938592
28.18470940725922
28.51264788121724
28.83972734793206
28.51307027082266
28.83988205495288
28.51308675386716
28.51262681650015
28.83973444790768
28.18563071838467
27.8586780591568
28.18631840487819
27.85969012890216
28.18634528841231
27.85872438494573
28.18559643360778
28.51268934803427
28.83976880447391
28.83989296967106
28.51316679086728
28.51311923133427
28.83974840751277
28.51274996728986
28.18569822685976
27.85894888905394
27.85976194207362
28.18647587262959
28.18639827298502
27.85881560172986
28.1857969196664
28.18742060158744
28.18691171325724
27.86048722048757
27.86112725150209
28.18693301617405
28.18740355529307
27.86115048331999
28.51376544999983
28.84001154050684
28.51351025489766
28.84011974796802
28.51347253774943
28.84010964410719
28.51379565300164
28.18745426883618
27.86054436269914
28.18703672566434
27.86126386077592
28.18697504769868
27.86119637865415
28.18750375880602
28.51399364224599
28.84018310749815
28.51419594525468
28.8402556691535
28.51420276261392
28.51398525273821
28.84018591542968
28.1878282958909
27.86168772103568
28.18816045282043
27.86217589612294
28.18817165405049
28.18781453384142
27.86170652114317
28.51401021940518
28.8401995974639
28.84026016235521
28.51423610979287
28.51421624319945
28.84019145331769
28.51403461752164
28.18785550070283
27.86179843443217
27.86220623930575
28.1882264791896
28.18819381361831
27.86174369486502
28.18789555111086
28.18871107720958
28.18845357088169
27.86257465985093
27.86290503646298
28.18846275624737
28.18870349261472
27.8629154566757
28.51453963776929
28.84031824502726
28.51440710743652
28.84037209467637
28.5143908116347
28.84036763723012
28.51455309556634
28.18872610088316
27.86259960582643
28.18850777576966
27.86296661043836
28.1884809399762
27.86293610293243
28.18874829604115
28.5146596746735
28.84040610156999
28.51476771581047
28.84044407578964
28.51477090442767
28.51465585511257
28.84040736764161
28.18892411565681
27.86319965783973
28.18910258721224
27.86346132642625
28.18910785652779
28.18891781255179
27.86320833122357
28.51466724006981
28.84041356078851
28.8404461569448
28.51478657130485
28.51477722281458
28.84040986829027
28.51467842413362
28.18893660754459
27.86325095642619
27.86347572947814
28.18913376771908
28.18911830456695
27.86322552568041
28.18895507973012
28.51502780573768
28.84054891126328
28.51509613713051
28.84053009257238
28.51509136134563
28.84052826981868
28.5150334263752
28.18953337890994
28.18964691709228
27.86419498918094
27.86406176985481
28.18963896139813
27.86404882822671
28.18954272196485
28.18952707993367
28.18963090037911
27.86418755135763
27.86403571221374
28.18963360046132
28.1895239068213
27.86404010491492
28.51495089699317
28.84050243618041
28.51486450266431
28.84047574193329
28.51486717897314
28.51494863990922
28.84050317603763
28.18940579302242
27.86386724759268
28.18926268550376
27.86368093109676
28.18926711461442
28.18940205194548
27.86387241842278
28.51495537269629
28.84050680016085
28.84047748241112
28.51488033978091
28.51487248421128
28.84050463765737
28.51496200471072
28.18941321698629
27.86389790116783
27.86369306072356
28.18928891395509
28.18927590049299
27.86388268320032
28.18942422132066
28.35562168564921
28.96002524377606
28.41278413508419
28.91873179316375
28.4122328922938
28.91881492812833
28.35833768834312
28.96005149288965
28.96031830360453
28.4131431289836
28.91866476805861
28.9188693081819
28.58048634405849
28.0184966366469
27.73353491334889
27.6865104769608
28.24518976265932
27.90870207657982
27.73978788770779
28.07585672544546
28.41551760970516
28.91916158587275
28.42116739875915
28.92011959698539
28.42143354691379
28.4150621178834
28.91923012562297
28.24812920455798
27.75177315219378
28.25514940525834
27.75873910324193
28.25548278599283
27.75212150608994
28.24756309814808
28.41581466241986
28.75276972077445
28.92014546172577
28.58822637011369
28.42160756268595
28.91927486702496
28.58586847801584
28.24849797255974
27.75486964438672
27.7597087690278
28.08892387533863
28.25570079449817
27.75347466338427
28.08638703833812
28.42696121001486
28.92121127212058
28.59307977722772
28.75667611587968
28.4288183561626
28.92093890371203
28.59229264250587
28.26241370118635
28.10108076207593
27.77305406118327
27.77124239599375
28.26475767454832
27.77083898800631
28.099437711516
28.26231591194744
28.26459775008758
27.77275945122137
27.77035146654162
28.2646943074598
27.77045092293442
28.26216666587619
28.42607553143418
28.92078815115022
28.42263443619426
28.92033203247649
28.42285891246786
28.42593750649398
28.92080850343095
28.26129870269168
27.76563207797474
28.25698235466006
27.76139787735732
28.25726401317361
27.7657352739141
28.26112479760569
28.42616591273024
28.92075494267112
28.92035379320506
28.58996891763779
28.42300572688886
28.92082180652764
28.59067081050088
28.26141259292614
27.93145420447942
27.76222306445489
28.09300218252722
28.25744824946948
27.7663391832324
28.09608592597599
28.43233213132968
28.53153503522123
28.43082679594889
28.53279805177821
28.24012797059724
28.24258584923846
28.33596906618079
28.33817914030353
28.43404355141033
28.53585750647124
28.53423502581528
28.43597421740802
28.44846194210616
28.54813929651594
28.46229568732813
28.55723017669186
28.46073829129036
28.5466818233689
28.4501977558163
28.25356740462264
28.26871201087537
28.27029081918952
28.35018769686717
28.36264028461186
28.34862383619522
28.36405371627184
28.27207215121472
28.27406400527605
28.25950157410876
28.35195884311562
28.36743645653043
28.36564985932805
28.35394795753119
28.44691784695449
28.54424426986786
28.55606486017058
28.45811807579064
28.44555559103221
28.45934815242228
28.54538638196924
28.68137942713924
28.95742004943265
28.68297884884796
28.69208604021548
28.95859953589991
28.69093943972129
28.95876702460757
28.69443190395098
28.95896238443883
28.69927755267966
28.95993196884536
28.70002053088231
28.69340451816271
28.95911231518364
28.35541681461083
28.35392547808629
28.34248543026853
28.6065362188565
28.61265238844404
28.6135962367731
28.60523321447025
28.6948404135736
28.95997467385048
28.87239738491203
28.78751248577423
28.70031389188073
28.95917195419991
28.78520992815555
28.77858266165465
28.95751472386972
28.68362432573774
28.69254334116432
28.95871189824923
28.95883385886373
28.78056316430961
28.34534095378207
28.35802079644795
28.35600521954828
28.60705414305465
28.61524755420249
28.61396885906156
28.52450525481676
28.50618118291444
28.42696648026263
28.34092021952875
28.3254097344403
28.59295288097955
28.60415894701781
28.5148749189534
28.42838827695606
28.53043558515426
28.42951569824875
28.52949046316499
28.23066358994741
28.32838708742894
28.32748332943846
28.42743516787035
28.52803126743213
28.52869144002165
28.42664820241493
28.44247322107145
28.54106076763713
28.55269435933206
28.45467084633341
28.45532298978263
28.54166184502629
28.44175603524597
28.25072514935948
28.26732806330818
28.26613183241513
28.34607933468198
28.36140221019676
28.34725737780748
28.36033267632996
28.44334108697726
28.54324750454003
28.5533543640618
28.45704127131039
28.44436608428927
28.45611146887849
28.54238885886369
28.2486883504951
28.26427729605414
28.26511681833748
28.34508165901386
28.35867525224598
28.35942550129623
28.34425732510081
28.68095724457232
28.95698578969912
28.68001457482958
28.689945576795
28.95855486042064
28.69063348309579
28.95845441575836
28.69237241806744
28.95971392432072
28.69852271930804
28.69216549645584
28.95881179306255
28.6925101966705
28.9589222727505
28.95972867533725
28.69907731577233
28.69862396339233
28.69312958046384
28.9588319042949
28.35352333224942
28.35261229026335
28.34193746433115
28.60409846846431
28.61239798394329
28.61182193002021
28.6048844100975
28.34001343216198
28.35240871906906
28.60392362175683
28.6116932740856
28.60366104447798
28.95695525999725
28.67949338811501
28.67980615972301
28.68979278337765
28.95839856216338
28.68956339781128
28.95843209830161
28.31622771024942
28.33545994737606
28.33500322902988
28.58772575517272
28.58812165249437
28.60067200921811
28.60038107953327
28.48030407748711
28.47264755182834
28.57499141988605
28.56622778592022
28.47125240406319
28.57394603245602
28.4815525218698
28.29453986170085
28.28183663550668
28.28326257474102
28.38633003826751
28.37472160482368
28.37599679473561
28.38518120899318
28.48712880073546
28.49323273121074
28.58561615112018
28.57901069186261
28.49403878923509
28.57976053402696
28.48623159726433
28.31416504772572
28.3154536836473
28.30711605973769
28.39646700619858
28.40533206263282
28.40418207250862
28.39775198363475
28.28486707451928
28.28665567196856
28.29758760018987
28.3876203341426
28.37903504391688
28.37743280595929
28.3890556845233
28.48813455250725
28.58153544996395
28.58636926331056
28.49593831493495
28.49494025988789
28.58060147899023
28.4892509723921
28.4791825945779
28.56518132297235
28.46889427173015
28.57217283888602
28.47000299599933
28.57300751742773
28.47818468319671
28.76359000529311
28.66925353142019
28.66221837449969
28.75971583068891
28.66842513274068
28.759043711713
28.76419012272486
28.76701091561891
28.77004523143848
28.67778328082084
28.67250450486483
28.77043019022724
28.67309780039984
28.76658159499433
28.85893765169334
28.95504376063577
28.85580303774242
28.95419567830777
28.85612566408486
28.8586479299749
28.9551408835265
28.86164193154974
28.95673742902766
28.86398137400378
28.95615775317766
28.86369225497024
28.86196617465191
28.95604908307033
28.76749269104136
28.67450297683098
28.67837896874901
28.77133876621387
28.77086112781751
28.67376341685732
28.7680281540957
28.76305168403758
28.6613889539984
28.66702092810639
28.75791016504153
28.66768177756646
28.75844275999349
28.76257324270194
28.85926367593202
28.85689703121974
28.95431774090386
28.95537203187532
28.85648974186198
28.85962720485975
28.9552501674233
28.739161632594
28.63418052376318
28.63518294942696
28.73843461638894
28.84483012473152
28.9505832954974
28.84539763739554
28.9503930094696
28.73998947250815
28.63761332187986
28.63632404375983
28.74092525841577
28.74744034805341
28.64758611700848
28.65496218274298
28.75446962968534
28.6464286932898
28.75371772984039
28.74828010496728
28.84894328510699
28.95164549887484
28.85247102477512
28.953087091928
28.85282974877665
28.84854519864088
28.95177902721428
28.74669476512233
28.64449465300607
28.65403794668516
28.75245576041679
28.64540060080783
28.75304775809913
28.74603797448371
28.84939523861903
28.95210131979561
28.85369154708125
28.95322323260871
28.85323576540261
28.84990441400353
28.95193057756629
28.64447587068402
28.74446275619708
28.64248017090789
28.85258794817229
28.95417236492697
28.85606365663428
28.8518123101627
28.95394380472393
28.85538331921855
28.95274164295272
28.75837854616083
28.66138066645556
28.6536680214353
28.75142387905605
28.65983977748855
28.65191346281087
28.75725825365715
28.84674951105589
28.95079727445883
28.8460356475899
28.95103681150209
28.74315297537519
28.63906131281427
28.74197688804947
28.64067951341493
28.75026567786784
28.65843238985239
28.64888060674874
28.75530758870571
28.7492198401256
28.6503203007163
28.7562357868578
28.85110907441382
28.95373545464492
28.95229251338669
28.85419967044822
28.85047442167862
28.85476274331578
28.95250550107855
28.44619211057237
28.54447165757383
28.4432312177169
28.5419705405644
28.27099580610255
28.37663921836153
28.28428913996899
28.26770510475508
28.28138101989291
28.36133685729515
28.37401647908061
28.56530406703232
28.55578010333486
28.47034203952648
28.45666225469763
28.56336886195925
28.55357897112738
28.46804468285253
28.24838931612761
28.24533399159418
28.34340927483372
28.34065368526777
28.44055214237217
28.53767822683929
28.43813856609896
28.53971102775919
28.45428703201388
28.5615996007635
28.54976813011799
28.46402775046693
28.4521358153903
28.55157808144373
28.46594181112571
28.27627443932381
28.26196852371159
28.27871117148767
28.35862552491427
28.36942140579612
28.35616632962319
28.37161241107375
28.95599257544469
28.95515734623561
28.85899195222862
28.86095362377121
28.9549570237741
28.85839540398385
28.95581692981064
28.7707242951521
28.68233108195175
28.67822291127489
28.76996627079001
28.6814106635074
28.77305612526798
28.67717769135258
28.76316954485761
28.66790395999976
28.67346001290825
28.76637839447057
28.66655098027216
28.76218668310452
28.6722714320599
28.76558287396138
28.66530861803313
28.67016938750311
28.76046194318283
28.76485386980842
28.76128475870881
28.67117482077647
28.86271498674464
28.95705699727668
28.86429916758273
28.95627759100565
28.86464584313905
28.86232367822152
28.95640879520561
28.76926428156454
28.68055476211091
28.67531790731628
28.77186366548597
28.77243613455197
28.76861840049903
28.67620929273307
28.86047125732911
28.95477337675676
28.85734929999859
28.95550688285161
28.86002938989574
28.85784824535681
28.955655089277
28.39630194580181
28.38720188404999
28.29574533547155
28.30339486851148
28.29317571975891
28.39426149826958
28.38488904440845
28.50090321037123
28.59135910813993
28.58622685489931
28.49327921167466
28.59019802611863
28.49951718203995
28.58490973268966
28.57338642322938
28.47977757947041
28.58029133548894
28.48608838477373
28.57168528410886
28.47775517728059
28.57879520789432
28.48444242143568
28.57012192308786
28.4741934285628
28.57614654127118
28.48293108196071
28.47589467188
28.57741386937144
28.3104208062887
28.31686626205689
28.30869668778439
28.4007084887243
28.40659351633866
28.40796654701842
28.3991654225298
28.28863367906264
28.29935615585718
28.29080581468403
28.39237406920958
28.38080877810447
28.39063936914336
28.38275881276519
28.49182245292734
28.5891177916799
28.58256411200964
28.49703376440967
28.49822687913374
28.49047985493993
28.58368868835027
28.47589866871699
28.56213691027738
28.46577255998572
28.56981359433655
28.46636447813071
28.57026192860144
28.47536228440587
28.29113873092122
28.28058376704136
28.27949872436285
28.38329334275434
28.37360193379763
28.37263275138173
28.38417017353023
28.48475372700723
28.49252069963257
28.57834991601789
28.58383159454705
28.49190121379353
28.48544066949174
28.57777616902864
28.3005535748972
28.30897736904647
28.29992518145119
28.39189576175209
28.39955978084804
28.40006635504372
28.39133582769918
28.47654594583495
28.56273493680927
28.46792131104501
28.57143894672471
28.46707946916802
28.47730691079097
28.57080289396701
28.27781323185859
28.27857665352967
28.28960934837436
28.3825473413352
28.37112783637721
28.37180942310034
28.38192913276729
28.48416856951939
28.57688215113114
28.58339065082401
28.49093406706033
28.4913727967858
28.5772875030165
28.48368319077026
28.76147853796525
28.65897766844084
28.66515370283178
28.75641199418536
28.66550858726029
28.75669633016433
28.76122155060431
28.76587518748929
28.76970544145796
28.67198182721195
28.67637250741899
28.76940997809587
28.76620344449514
28.67152807172375
28.85817270506849
28.95495838263912
28.85552019265696
28.95391045041537
28.85839333110059
28.85527553144605
28.95488435416642
28.86049354231149
28.95639208445317
28.86253507898913
28.95561694824298
28.86266168247734
28.86035307408626
28.95566410382416
28.76178844381901
28.65945126938425
28.66644004848076
28.75744322496551
28.76215277520222
28.66593669443415
28.7570393928053
28.76559561157574
28.67082102403051
28.67602403131668
28.76894880450955
28.76915801730098
28.67114162299556
28.76536363186718
28.85798498585926
28.85489512609875
28.9538405115055
28.95476893696135
28.85506759219727
28.85782925265752
28.9548213021237
28.73725828659305
28.63330822908594
28.63255844265527
28.73780207976043
28.84289464432628
28.94966408193001
28.84266263178932
28.94974275076247
28.73679804788188
28.63139980045617
28.63192432444595
28.73641676332389
28.74455334369761
28.64196983422737
28.65136668388888
28.75079791196504
28.64244692294674
28.75111203251343
28.74420690746047
28.84789866998871
28.95152890962883
28.85215730794422
28.95277046834189
28.8481979320476
28.85188644743389
28.95142827171397
28.74497153789307
28.64370427151436
28.65188973877747
28.75193803834183
28.64302348869171
28.7454650603051
28.75149116781269
28.84764485917402
28.95127142876268
28.85146576600545
28.95269301396215
28.85165648936035
28.84743429520811
28.95134267473587
28.84233395135049
28.9496006567439
28.84247594577497
28.73572103211281
28.63033988835482
28.63044759723454
28.73587835730339
28.63097999247124
28.73611075236563
28.63066228190876
28.74371972189929
28.64158846119647
28.65032758641471
28.75054672156978
28.74392946245437
28.75035744022118
28.64130076253955
28.8470519136193
28.95113141164023
28.85108313457445
28.95251314840318
28.85112104295014
28.84700998059268
28.95114349326096
28.74357847591281
28.64101008179741
28.65015300928043
28.75016707831232
28.75023043653965
28.64110716055911
28.74350804014002
28.84713762729523
28.95121423894543
28.85131308759396
28.95253840939716
28.84726538736535
28.85119802413551
28.95117133776861
28.76086216626316
28.66487042613686
28.65803684538564
28.75618481645925
28.76101630939108
28.75601398262665
28.66465778828412
28.8601566797781
28.95629032205456
28.86243395932479
28.95557928904265
28.86235810631476
28.8602408776263
28.95555107708816
28.85754898625983
28.95466503954591
28.85454998497478
28.95367822893816
28.85458426465593
28.85751799223904
28.95467503732748
28.76494651103522
28.76853087364895
28.67521476117357
28.67018068340985
28.76857272188143
28.67024485620731
28.76490009691106
28.76503936659453
28.67056509307961
28.76878172381101
28.6753304165529
28.76865639090802
28.76517838611511
28.67037309195942
28.76075912339977
28.65787933329227
28.75584254912066
28.66444451877222
28.75589962404596
28.66451564901863
28.76070765844818
28.85761137569454
28.85475723328581
28.95472709862369
28.95370113198194
28.85770482426579
28.85465353925211
28.95469576306477
28.47461378131854
28.46530064030192
28.56945589822526
28.56095018535482
28.47493449720557
28.56918757243512
28.46494671382289
28.3081827521127
28.30852313063355
28.29942388319942
28.3905543869937
28.39915542941149
28.39885239307666
28.39088912825081
28.48281187253756
28.4900585113589
28.58236691559641
28.57607301800453
28.49014618731447
28.57615410787737
28.48271485808122
28.28836656317202
28.27644489077283
28.27629237583918
28.38082026107538
28.3697692457956
28.3699055577814
28.380696753408
28.27720488365556
28.2890567411651
28.27674912614214
28.38106680923999
28.37058461481968
28.38143619870182
28.37017747562473
28.4830056222888
28.57655865897601
28.49058385112989
28.5825131578112
28.4903213341835
28.48329591970082
28.57631607521024
28.47439961422588
28.5607518557432
28.56891850588275
28.46459160293813
28.56900829135445
28.46471017349122
28.47429233196397
28.22925637323753
28.22985969635286
28.32622264394128
28.32676338898331
28.42523174755434
28.52670417389575
28.52683875176676
28.42507232738061
28.42554879022504
28.52750411325661
28.42602077628872
28.52710653933133
28.44075479787472
28.54058105687701
28.4541510010106
28.55138530328645
28.44118431865651
28.54021999974907
28.45376086903496
28.24685092522014
28.26277261376066
28.26260458091892
28.34277796301646
28.35717930304471
28.35732966053291
28.34261220472298
28.24795442511311
28.26360856963414
28.26310743166189
28.34310786492609
28.35807750008257
28.34360063313237
28.35762930028546
28.4404668651082
28.53985572853445
28.55116597798584
28.45336880351205
28.53997750951017
28.45349980145647
28.44032221858269
27.98439865250979
28.17936224654595
28.17254738193138
27.90633771439682
28.00101829108047
28.12735786248482
28.22958193306848
28.2112463079273
27.94743796180629
28.05853886542723
27.95819189942072
28.03970322278134
28.16233799124414
28.16449015546252
27.87334861508543
27.89978674327742
27.90892550626611
28.21582081680196
28.20246056488729
28.20544868782673
27.92772476774552
27.95031715234975
27.9520185617647
27.92379088486078
28.25240371805446
28.25394998182906
28.23713703038024
27.99571720078734
28.06640735895357
27.98398621786623
28.07969375537821
28.25877383027251
28.27269007768015
28.01816531650481
28.0154031519801
28.270459995728
28.00654629181296
28.0949192167898
28.252952863249
28.23298161756991
28.25044550484658
27.99450036784054
27.97710530763205
27.97286011553206
27.99143287236442
28.01459573029247
28.26980868693308
28.2681573396145
28.01316465734718
28.25562249867058
28.00555663997251
28.00380728085501
28.15876716971199
28.13732523514879
28.15610874654772
27.88706909125735
27.88851818067797
28.21986672697929
28.20121940046012
28.19922446533176
27.93221811646549
27.94744409937033
27.92215553014833
27.95534157909958
28.20854606867062
28.19740337529247
28.19694871416016
27.93148835691314
27.94293666207676
27.95473589425196
27.91652546444244
28.15369613269527
27.86383002250595
28.15329377912098
27.88491447228894
27.90096196921878
28.22840699249823
28.24826374090361
28.24977465113238
27.9892704401458
27.9752239594099
27.99061020306306
27.97447203558286
28.26771198237635
28.00742206050272
28.00642359225604
28.26670290129372
28.2550173083121
28.0012758027364
27.99679574592986
28.25289126215506
28.00549631811754
28.26647737743239
28.26613816368335
28.00534123344404
27.99445607359822
27.99417411943664
28.22704818504981
28.24792778227721
28.24742346181408
27.98803109443155
27.97259371637573
27.96454978537078
27.98772074972578
28.95192941126787
28.84940469660766
28.85048007596831
28.95229184566646
28.64667878874086
28.74928777570874
28.64909953750959
28.85343936895769
28.95442178878872
28.85680544284095
28.85436906422854
28.9546923340952
28.85760946009266
28.95360189491404
28.759599305091
28.66305839459574
28.65559086008596
28.75562884816897
28.66487425722814
28.657686828744
28.76092168164097
28.35353076917123
28.25956519129458
28.35757184500737
28.26400624017404
28.44945005825867
28.54722857213853
28.45301753947179
28.55025334877288
28.27457862380307