/*--------------------------------*- C++ -*----------------------------------*\
  =========                 |
  \\      /  F ield         | OpenFOAM: The Open Source CFD Toolbox
   \\    /   O peration     | Website:  https://openfoam.org
    \\  /    A nd           | Version:  7
     \\/     M anipulation  |
\*---------------------------------------------------------------------------*/
FoamFile
{
    version     2.0;
    format      ascii;
    class       surfaceScalarField;
    location    "0";
    object      phi;
}
// * * * * * * * * * * * * * * * * * * * * * * * * * * * * * * * * * * * * * //

dimensions      [0 3 -1 0 0 0 0];

internalField   nonuniform List<scalar> 
36709
(
1.785844775466283e-05
0.4491157525546186
-1.478254284489265e-05
7.585392975738532e-07
-1.299377604586042e-06
5.6099167568081e-06
-1.535328273118189e-07
0.1123482271027392
-4.932227240497446e-06
-1.114249609720636e-06
0.4491603670135831
-1.817367645804347e-05
7.598625984810148e-06
3.926266762842301e-06
7.456579816059183e-06
3.805361040137845e-06
-6.637824377142341e-05
1.221348853899795e-05
3.602239652825134e-05
3.798393068271677e-05
1.172328622045526e-05
1.796139729259657
1.1264862598835e-05
-2.823117643582474e-07
0.02831768771051291
-1.066528401881167e-05
3.733478058492459e-05
0.1127425899942676
-1.511777893838958e-06
-3.081976046543141e-05
1.814900549877298e-05
0.1125263965195593
-6.42211331235081e-07
-1.541167618440184e-05
-1.817098187953016e-07
0.1123614759531062
6.4036485447446e-06
-4.687766704690976e-05
1.795986875874966
-3.345809338428963e-05
1.795874713774452
-2.393155824566045e-05
1.795792103267651
-1.703758369192675e-05
1.795731060546125
-1.193844171582546e-05
1.795686133554476
-8.054440618842883e-06
1.795653630546042
-4.969816708995607e-06
1.795631071990243
-2.370291844202613e-06
1.795616838075325
1.795609951252871
0.0003259774195491778
-2.742360020109338e-05
-0.007319273138949341
-0.0002962286082195737
2.200792343470387e-05
0.007294940004387873
-3.25334225940718e-07
0.02834249723121387
1.262427933065664e-05
7.174030268149796e-05
0.0005898140511594962
0.007670518068297378
-8.101731324035816e-05
-0.007731117151274318
-0.0005199379576232688
0.0005967252383663682
0.007677621267568594
6.253412602815664e-05
-0.007738943751383526
-0.0005261965779149218
7.95893300504711e-05
0.007723759100906563
0.0006714684178269728
-9.004681225926184e-05
-0.007794955985383581
5.937582066359935e-06
-4.679137204190607e-05
0.00806625598922675
5.392051451528578e-05
-6.732235090609032e-06
-4.034704505254784e-05
-1.253025292792546e-05
0.007937995823895903
4.660623248487619e-05
1.171279996505108e-05
-0.0005086581619835141
0.007642217964040995
-0.0001638611842349585
0.0005801693604887024
-0.007703635835480586
0.0001537678571666389
0.007731532882697074
0.0006790769157894779
6.926300854614668e-05
-0.007803558238644449
-4.733910693632637e-05
0.008077945045623671
5.453117241980567e-05
5.157586523458257e-06
-4.921452792777632e-05
-7.21439131766147e-07
5.663583994862305e-05
0.008116128460353986
-0.000619251171595135
0.007757465255332402
0.000703508508363035
-9.701774591621331e-06
-0.007832026928258873
5.461793662445934e-06
4.48248906341271e-07
0.112346308168318
-4.80543964373143e-06
-5.883108469959409e-07
3.900278011321897e-05
-0.1123423321025676
3.257555483872692e-06
-3.460040767972621e-05
0.1123389572004676
-4.285025814988739e-06
3.999217688374908e-05
-0.1123441739416791
-1.104576554820628e-06
-3.54446996451385e-05
0.1123407296770527
-3.442697879561114e-06
3.855246797918446e-06
0.1123167001561534
-9.430248226749575e-08
-2.540037563569797e-05
2.822952546033264e-05
-0.1123140847004738
-7.22894020257316e-07
0.1123119774219496
-3.382492747980306e-06
3.766562071999198e-06
2.622110990557946e-07
0.1123155093931682
-3.349608235129505e-07
2.765161273419058e-05
2.026524853781234e-06
-0.1123128852659701
0.1123109251235697
-2.506643363986427e-06
-2.521135181879076e-05
1.025565554226805e-05
-2.036158988595866e-06
-9.749283514179777e-06
0.02830260553315168
1.822911759864097e-06
0.0001370840776063497
0.02825142085701205
-2.844189175748283e-05
-0.02826253388244968
-0.0001227259797218936
2.519681931139373e-05
0.0001494180189251468
0.02826151076706271
-3.810209890658689e-06
-0.0001329064666788516
-0.02827421478521921
4.563528022552514e-05
0.1128259628516304
-1.915002962850401e-06
-0.0002461567610890176
0.0002984940746489715
-0.1127771022532259
-1.25784042688725e-05
0.1127373371388388
-3.525750067082676e-05
4.287549226391394e-05
5.514998657392469e-06
0.1128038386334751
-7.109354026692642e-06
-0.0002328620120326929
0.0002809302176802972
3.631034685822024e-05
-0.1127577847261794
0.1127202549073855
-4.68487337143664e-05
-0.1127041667423612
-9.996619460116214e-06
-0.0002046753396422602
0.1126726766073496
4.365091358799179e-06
0.1127250470279311
-2.92375640240642e-05
-5.641944091301768e-06
2.895504771583074e-05
-0.1126886464522326
-0.0001944693774020093
0.1126587693504782
-3.747058063544539e-05
2.150346154157288e-05
0.112567451896993
-7.861156987300777e-07
-0.000122838140855836
0.0001446649655350245
-0.1125475812556651
-5.293824383416821e-06
0.1125310447186276
-1.740221232540478e-05
2.055386665853121e-05
2.284082588843871e-06
0.1125582069910198
-2.970454962930523e-06
-0.0001179279804871605
0.0001384549777718284
1.544556188699422e-05
-0.1125391610646833
0.1125232983382194
-2.010983271098191e-05
-0.1125101637852772
-4.349262754273208e-06
-0.0001049324497726108
0.1124966042289763
1.868732644174128e-06
0.1125188090913554
-1.481914576473288e-05
-2.434083064893712e-06
1.271272286196279e-05
-0.1125032030908724
-0.0001010184767394458
0.1124901586192362
-1.65777550317574e-05
-9.740984783031121e-06
1.129581912473392e-05
0.112435522462091
-3.637211954516275e-07
-6.753919663686717e-05
7.783533427534402e-05
-0.1124262756359879
-2.50703130086705e-06
0.1124184842881846
-9.430466991672242e-06
1.091362551973137e-05
1.061716323785254e-06
0.1124311567586886
-1.388125598534456e-06
-6.546686310364652e-05
7.529188428981141e-05
7.360633429083759e-06
-0.1124222001878508
0.1124146506852117
-9.636151968806366e-06
5.312896841413222e-07
0.1123592271212388
6.228372301455942e-06
-6.971509553813394e-07
-0.1123545918657687
3.811817910338564e-06
4.413623713425957e-05
0.1123506573746624
-5.010783945914433e-06
-0.1123567346421961
-1.292718110219924e-06
4.530932394799797e-05
0.1123527087086913
-8.436604057095663e-06
0.1124130998732209
-3.041601139744989e-07
-5.88734029845799e-05
-0.1124053350977814
-2.110362032681599e-06
0.1123987776426763
-8.182332695770515e-06
8.884977660081443e-07
0.1124094258343877
-1.162853230538634e-06
-5.717288088981767e-05
6.203713432835776e-06
-0.1124018884736433
0.1123955213678922
-8.130589998524173e-06
0.0002376743883133897
0.007379666369760809
-3.134321309555333e-05
2.755828173468344e-05
-0.007399101697516253
-0.0002144541291979406
-9.247541982403953e-05
-2.66030077172119e-05
-0.007319370903680246
9.676645239753224e-05
0.007315849050303068
2.58338285221346e-05
0.0002239018833212606
-6.41236198155764e-05
-0.007341797566991402
0.007323889307078093
6.105450476588495e-05
-0.000202924508355613
-3.346002224740084e-05
3.923495321988165e-05
0.02872382511419356
-1.154180838920754e-06
-0.0004124251098677727
0.02848361346133859
-1.440878391175306e-05
0.0004759333203914213
-0.02853271939703895
-2.917547489379978e-05
-8.11121127340454e-06
0.02866335651212823
3.399349575547911e-05
7.316437428443728e-06
-0.0003619401604199379
0.02845317455729585
-0.0001020256598535996
0.0004151929960594428
-0.02849635482310784
9.195309002636846e-05
-2.337787841290824e-06
0.02832520760675553
1.144120971639629e-05
2.095154301960611e-06
0.02826694826483301
-3.154228171147358e-05
-0.02827955239401681
0.0001529266520369484
2.830383644539264e-05
0.02827823196922746
-4.348578489918237e-06
0.000167854269573424
-0.02829232255247776
-2.869645896952268e-05
0.02864905791425612
-9.708404067823085e-07
0.02844910175815294
-1.225512248414437e-05
-0.0003588311002631123
-0.02849044648718
-6.836751608578767e-06
-2.517713839414249e-05
0.02859812062619648
6.162604019324664e-06
0.02842214283344541
-8.700831513808292e-05
-0.02845869988929765
-0.0003167297528939181
7.835496343447973e-05
-0.0006849824762193579
-0.008441706383426378
-0.0001259290255278688
0.0008070700675515421
0.008332448532744327
0.0001130992848764729
-0.0001708438202069914
0.001349678208647223
0.0001509368239807408
-0.001160253029465093
-0.008214480151464093
0.008044961968509743
0.001333687856403164
-0.001145513512380017
-0.0001917051081985843
-0.008196906053168371
0.008029592997123761
7.792653436425572e-05
-0.0007123502843346948
-0.008504290372171167
0.0008370644179889929
-8.913237419795375e-05
0.008390782078350395
5.330532615383008e-06
0.007959160675567315
-6.031145529220428e-06
-4.079571115068049e-05
2.515212573478974e-06
-1.740943620865685e-05
1.946462625884523e-05
0.007502475370194129
-2.816967689434834e-06
0.007479474257735534
0.0003457406231336061
-7.003581619103879e-05
-0.0003086757929160558
6.449936939309326e-05
-0.007511002641156047
-1.50677231709271e-05
-4.703044542044548e-06
0.007451371863605588
1.68125273078416e-05
4.470277218730053e-06
-1.099055059957955e-05
-3.512385228907333e-05
0.007845299339792488
1.030976953607912e-05
0.007417596408314481
-8.057220847897471e-05
-0.007442447766154592
0.0002798101288599612
7.648958219763519e-05
-0.0002508761447384526
0.007596446706881171
-0.0001448683797557361
-0.00764866712807681
-0.0004478941141983399
0.000136324753147194
-0.001392321925354683
-0.0001054522425380329
8.674154006238098e-05
-0.008383090190350407
0.008171279814758837
-0.000732629884671389
-0.008554054909104969
3.71068273638062e-05
0.0008589221087808815
-4.682306940387429e-05
0.008437478927038614
0.001374902962463254
-0.000131909616974466
0.0001136744663327111
-0.001183636057045413
-0.00824374620320234
0.008070714448424171
-0.0007189832920623866
-0.008520314401090367
0.0008442701079117575
6.717617631890258e-05
0.008405777943267174
-9.61359268473705e-05
7.919505953541927e-05
-0.001199928279434412
-0.008265092992876906
0.008089640214256962
0.007969670404626244
4.638943609261136e-06
-4.128631752597312e-05
-1.763121891767763e-05
1.971348997939616e-05
2.209003008487579e-06
0.007507473208576179
2.372212888385664e-05
0.007513796973454251
0.0003780193965891141
-0.0003376329167794073
-2.964156948023433e-05
-0.007548264012665843
0.007516249031060089
0.0003802200344709062
1.779598478506669e-05
-0.0003396284561735667
-0.007550914465279402
-6.532242994002117e-07
0.008004570871464464
-4.29626438091153e-05
0.007701599691204159
-8.805798343936225e-06
-0.007765192370718119
-0.0005468586091250876
-0.008283677990540788
-0.0001121699611323091
0.00819523033851363
-0.0005854913499976132
0.0001011264869274407
9.775698796915126e-05
-0.0007672779682390198
-0.0001110614963423703
0.0008801559627811582
-0.007943082198874312
0.007843508712706003
-0.007974168007094749
5.129280616819452e-05
-0.0003968112772046732
0.007922040814630611
-5.811246469573722e-05
0.0004557581281976079
0.00074641582732231
0.0001120391198276873
-0.0006525793851916993
-0.0001242247775210583
-0.007842716451454007
0.007761065667016583
0.0001246853749479575
0.0008572035981118982
-0.0001386197141487116
-0.007918090149251976
0.007821236717651916
-0.007933459315308145
-7.914556980681108e-05
-0.0003787026599929645
0.0004355687897600205
7.205713119653786e-05
0.007883681624150242
-0.00833991960219649
7.029797556780768e-05
-8.020138046550207e-05
0.00824780215201576
-0.0006103294292717458
0.0005507310507793017
-8.901492284185816e-05
-0.0004696699036524875
8.019753407992135e-05
-0.008355921748916608
4.054199163767841e-05
-0.0003164435817978213
-0.008016394732428595
-4.594711579574494e-05
0.000364075431270245
8.505679118729438e-05
8.170073950314904e-06
-7.269905721386455e-05
0.008503877621082234
-9.33132114996902e-06
-9.196883640733467e-06
-4.464245574794502e-05
8.363687083570073e-06
0.008021383386407984
5.151481343673772e-05
-6.265357748560752e-05
-0.000302031416213901
0.0003479935922158701
5.701659962933369e-05
-0.007973784513464952
0.0005725738859792576
5.566322509346668e-05
-6.353309958860051e-05
-0.0004894835695871421
-0.008415140044107877
8.176317589742291e-05
-1.310993313833275e-05
0.008441120694221501
1.179884198433208e-05
-6.971678502540686e-05
-0.0001000172111030033
0.0006503790724618848
8.976078520830144e-05
-0.008531097979240404
9.066616304649781e-06
9.991495286465475e-05
0.008705800875212874
-1.038265849274672e-05
6.174225983210022e-05
0.0006743251019309323
-7.065454405106468e-05
-0.008597129303937445
-1.474195394523932e-05
9.630585307301042e-05
0.00863568726546882
1.321469544236086e-05
-0.0005210566578458585
-0.000139989747456416
-0.008924559742615407
0.008831768556843313
0.0001265247585831503
-2.485274480650408e-05
0.0001045916742230368
0.008715030593937714
-8.818523004482272e-05
2.2598746846416e-05
-0.0001218136119209785
-0.008671389779989666
-0.0004358777813125004
0.008597102767303428
0.0001109217480622263
0.008415766881394345
-0.0005410987994074877
-0.0001107621798725277
0.000639711726050539
-0.008503634839279369
-8.032142522631788e-05
-1.634813816536198e-05
9.47115361081035e-05
0.008606418836828075
-0.008227591599332984
-0.0002814107103639422
0.001130020309016192
0.008078978106212654
-0.0009578293783789037
0.0002578332728461562
-0.0002475891072835165
0.001023005102173964
-0.008368393637785397
-0.0008610305269011291
0.0002264165704447707
-0.0006729160678795993
-0.000139339451867529
0.0007937098934368888
0.008308383482151491
-0.0002603493816226831
0.001268641649669008
0.000236465839794127
-0.001086226653882856
-0.008132218371272749
0.007973686917316303
0.00814743588352654
-4.888929045897196e-05
-0.0001618833229351343
-0.008171356001634721
0.0001893828883362559
4.530984316482036e-05
-6.167662772799924e-05
-0.007921709263106088
0.0002294851826670991
0.007894940993029731
5.768433417774211e-05
-0.0001987246190399245
-8.055187908652887e-05
-0.0002666355690087419
0.0003118587174901051
0.008108071214741448
7.469339937619311e-05
0.0082604951785857
-9.814787111700337e-05
-0.0004610257969580904
-0.008331435232784656
-4.37355658781578e-05
-1.003698613591002e-05
0.008003092767658402
5.049053790229574e-05
0.007916934166488114
-0.0002959363644458262
-6.832442247907212e-05
0.0003411248714689424
-0.007956451828532328
-1.447266532631727e-05
0.008415085278077409
-6.842338214621184e-05
-0.0002107545467133973
-0.0006647740242949089
-0.00783119731185207
0.0007654008304062251
0.0001963913022180826
0.007744933750236402
0.0005377916396119705
-0.0001454500297811824
0.007832873932366518
-0.0004656784015241156
-0.007895320788395959
0.000135783647723509
-0.00016575611437724
0.007913365023066121
0.0006248074526466367
-0.007988721519006743
0.0001540967972687933
-0.0001235853432017318
0.008173651926241008
-0.0005746574334931613
-0.0001433443823886128
-0.0005382615362954866
0.0006138666880499056
0.0001327235776337795
-0.007735136214385298
0.007670151867384222
-0.0001818343534324292
-0.000703089229235179
0.0001672699498877655
0.0008088748607507516
-0.00787009255697612
0.007778871329003929
-0.0003710466675622731
-8.626692258204172e-05
0.0004269479704484677
0.007868154216352015
-0.008385132448030507
3.370621981092177e-05
-4.247742493252049e-05
0.008290351745357685
-0.0006290779769015329
-0.0007756244115608138
8.476428186577241e-05
0.0008892754922114712
-0.007953462181705733
0.007852803807142828
-0.007984806362188219
-0.0004013777606937183
0.00793209178869307
0.0004608014685880008
4.458367174629208e-05
-0.0006075759662400543
-5.907006781868781e-05
0.0006909493367105367
4.900447562727851e-05
-0.007817324455025736
0.007744016676748208
-0.008354391020385106
6.073330968948223e-05
0.008261381918341124
-0.0006164095241711347
-7.206346331301686e-05
-0.0007885618264163376
0.0009033125327734792
5.962556850336247e-05
-0.007969945095036488
0.007867632283488576
-0.008007973500669867
2.507176289880059e-05
-0.0004111976984650031
0.0004715509032989796
-3.148259123852519e-05
0.00795403112417431
0.0005889009652278909
2.665790345073669e-05
-3.360202380709096e-05
-0.0005045410912685031
-0.00846254820165405
-0.0003200807202051225
-0.008027509792579327
0.0003680969953168961
3.52291468825405e-05
8.588945216931329e-05
-7.345306156632177e-05
0.008519948133576568
7.051982686630304e-06
2.897314942528749e-06
-4.855335705931257e-05
-3.638798317946586e-06
0.008103385122845981
5.589674616574551e-05
0.0005778784778303126
4.807150350327562e-05
-0.0004943417658709097
-0.008430336010785043
1.9799359040561e-05
-0.0003279313806516007
0.0003767098014538162
-2.486597149521702e-05
-0.008051685309041582
8.787779701749744e-05
3.907093436206249e-06
0.008554087908060296
-4.925755362081585e-06
-7.520524818877422e-05
2.936385148862375e-05
0.000691988563453072
-3.706075427989939e-05
-0.008649445604583873
0.000100827837896214
0.008723666835456093
7.808218748739333e-06
0.0006800930287088746
5.320305569355875e-05
-0.00861398974787143
4.305408594062203e-06
0.00010307450585192
0.008761394406004333
-5.43503175973636e-06
-0.0005911265977861104
0.008560385905539565
0.0006943468935933687
2.185484459421126e-05
-0.008656097194468058
-8.882955092904144e-05
0.0001040278943154101
0.008776613882943143
-1.059156510135445e-06
-0.0005943307655453264
0.008567299582009885
0.0006976047945360552
-7.221309935939808e-06
-0.008663356804546957
-8.837915081478156e-05
0.0001036680822223681
0.008768610372339374
3.204094743305152e-06
0.008391117913454238
-0.0005066393815402007
1.986161235023789e-05
-0.008468808838637333
-4.882489892314338e-05
2.165369152625481e-06
0.008108702909437552
5.620757736284054e-05
-7.6108411765104e-05
0.008569129685888953
-9.6440755093025e-07
0.008019471405754859
-0.0003320911200293073
-0.008063698431158117
-4.91288814403247e-06
0.0003812255275484612
0.008012798912672255
-0.0003296103950731988
0.0003785344305631113
-0.008056717857930034
1.479426879034282e-05
0.008398447566819525
-6.571969844979371e-06
-0.008476500435535052
-0.00050971105625194
0.008560800099051956
-7.563012124853039e-05
2.910878168571078e-06
0.0007352898315639126
0.008296037803080962
-0.0006316204389017573
2.511693748685324e-05
0.000799502947415935
2.138576584821254e-05
-0.0007011553750222016
-3.216817535577623e-05
-0.007902876153614407
0.007815310990728819
-0.00041630525037114
0.007964949513435267
-6.221936170727165e-06
0.0004770433561539518
-0.0008019648293041596
-1.173514276797339e-05
0.0009174901849523497
-0.007986781216249949
0.007882984634057514
2.351435870576839e-05
-3.539245777023733e-05
0.0009149535768575446
-0.007983881057530881
0.007880308527132977
-0.0004132772499609877
0.0004737979939764707
0.00795861394779648
1.873598371834291e-05
0.0007388938053031879
-8.311833143699701e-06
-0.0006351872609263354
0.008303047327865227
0.0008616765648286085
0.008443483672734209
2.762232684634611e-05
-3.096838563034281e-05
0.001407018785816083
1.543442112935189e-05
-0.001214409004227831
-0.008283156659583348
0.008106080842495015
0.00140548385496375
-4.670871957978435e-05
-0.001212731270530331
-0.008281457116949661
0.008104444866440791
0.0008651445535497579
-9.128346212564186e-06
0.008450172266926707
-0.0005482395765684133
-0.0001788981057550285
0.007578565099576379
0.0006227607061114977
0.0001680298406574268
-0.0006359773944396885
8.742925686897754e-05
0.0007212576019435465
-9.885993623742206e-05
0.007649909572757001
-0.0001584889001931223
-0.0004845110444801573
0.007541954576651212
0.0001492524983015022
-8.888231967527275e-05
0.007391023612278745
0.0003060922506689046
8.43998974404745e-05
-0.0002750370324107566
7.889702453513713e-05
-8.905451434206329e-05
-0.0005625581752011105
0.007607256338830568
-7.725499217269284e-05
0.0003772227018287696
-0.000337571602957112
7.11720456444902e-05
0.007445906105377279
-0.0006434945462486606
0.0007295228668258655
7.612443846394289e-05
0.007656809380498393
-0.0006680897612008808
0.0007561968867933566
-1.068002269527667e-05
0.007680031995852214
6.880329310602252e-05
-0.0005693741869352431
0.00761359463964487
2.622085120967457e-05
0.000412496983677229
-0.0003692584357707146
-3.275874140111375e-05
0.007477096315716905
0.0004149086177881939
1.967283442280623e-05
-0.0003714475723551577
0.007479336002375551
-9.702339840143007e-06
-0.0005919437535894625
0.007635150072102567
-0.0005053768257223239
-0.008869374858574223
0.008779415378975995
-0.0001542893885146432
0.0001012029519775574
0.0086654099828788
-8.524539327315281e-05
-2.720235083014915e-05
-0.008623234205207473
-0.0004221412929969363
0.008551307196226612
-0.0001331221356838516
-0.008193217452077881
0.001094814005673403
0.008049311048594675
-0.0009269079218023564
-0.0003054103907707782
0.0009915852539180284
-0.008329642834610251
-0.0008334828974079192
-0.0002692660812904826
0.007912886694871234
4.501017330595373e-05
-1.331701793943304e-05
-3.897694659837031e-05
-0.007897152383176112
0.000221799286788024
0.007871282629968128
-6.551203352505381e-05
-0.000192094127806807
0.0081154192991672
-0.0001564575540004006
-0.008138522124254765
0.0001830895763253795
-5.241848771146748e-05
-0.0002577228257091559
0.0003015309639517754
0.008077376772190357
-8.63174903796567e-05
0.0005197526290224793
-0.0004500677617102431
-0.007871679169175723
-0.0001547775936306656
0.007811321865694537
0.0005607540938918415
-0.007686361289425411
-0.0001734651091337931
-0.0004917687595925298
0.00762697988000506
-0.0006424519102258133
-0.00780973872426819
0.0007397581393952592
-0.0002246813617022906
0.007726359310074403
0.007889162379589403
0.0006039780465595774
-0.007962006357406378
-0.0001771375541207514
1.527600703177256e-05
4.061522888050489e-07
-0.1123362079514081
-8.034987483868268e-07
0.1123348917960598
-1.356250523087965e-05
0.1123479038907114
-4.911124027106961e-06
5.584946448278002e-06
-3.02904558161545e-07
-4.767448549763389e-07
-1.53385658124696e-05
1.735098178567086e-05
0.1123466896665235
0.112336484384155
-1.297195435128851e-07
-4.352080233758841e-06
1.727689194013086e-05
-9.452235989471147e-07
0.112346371484243
0.1123351647851809
-1.361442107329048e-05
-2.552442702505041e-07
-4.334500958859717e-06
0.4491577561023838
-2.134400197840556e-06
3.491575850785023e-06
8.149804199053534e-06
7.027481638451072e-06
3.932317990798517e-06
3.72516081591351e-06
1.246345613205302e-05
0.4491480874585001
-6.059349473807366e-06
-5.508178201203554e-05
2.305154884885835e-05
1.780047200988094e-05
1.376913725912449e-05
0.4491508631519068
-5.62292553917194e-05
2.036668623951049e-05
1.984256862606892e-05
1.454483150315627e-05
1.470128390966552e-05
0.1123083980320256
-8.253416772386775e-08
-3.216018310376804e-06
0.1123042094589195
-7.191510267674016e-07
-2.294594888148232e-05
-0.1123059456342528
-2.831102392615824e-07
-3.161933014407542e-06
0.1123073155757304
2.276583365308491e-07
-1.969048508090223e-06
-0.1122984119090997
1.651210780557882e-05
0.1122947044678906
1.62783788230587e-06
9.393328463854275e-06
-0.1130463911329365
-1.847716694891489e-05
0.1130150968909178
-0.0001652767682789592
4.796438484819254e-05
5.497606368060938e-05
4.763360985457661e-05
5.508079039478857e-05
1.103878461676445e-05
-1.094854050994134e-06
8.310938114408517e-07
0.02831434738268258
-1.045919678307965e-05
7.619966809889224e-05
0.02830274312298069
-0.02830994901000433
-1.930213315927015e-06
-6.706644350259268e-05
0.1130526135073495
-3.170953862918696e-06
-5.633850153039129e-05
2.141613276109532e-05
1.378068106099029e-05
2.140242778048487e-05
1.371621987450965e-05
7.469445712788046e-05
-7.516151603373024e-06
0.0282996907464214
-6.582914295867694e-05
-0.02830675747873849
5.717569743751897e-06
0.1130209591972967
-0.0001671563751807531
4.833130817386705e-05
5.572801806458597e-05
5.569229336023496e-05
4.844305787083183e-05
-6.229996881451402e-06
-5.570064335108693e-05
2.112272765611434e-05
1.348715875216719e-05
2.116433798824563e-05
1.367716105362717e-05
9.11937276350257e-05
3.593919931338485e-06
-0.1126711679679637
0.112659578524605
-7.095332074656565e-06
-7.610287212671904e-05
-4.500030823990097e-06
-9.199671858141122e-05
0.0001112193903591961
0.1127278613228331
0.112739601741346
-3.054805945002716e-05
3.697744454331367e-05
-2.977265076189461e-06
0.1126735567028092
-1.205185085864747e-06
-2.564903218557784e-05
0.0001101643361564831
0.1127250067752428
-8.875673454471321e-06
0.1126618696348718
-7.672103058110847e-05
-2.375329769332475e-06
-2.544008499180845e-05
4.612447320421358e-05
1.588987114369737e-06
-0.1124903406625695
0.1124852858414069
-3.145780400654172e-06
-3.951285876113629e-05
-1.92712465371039e-06
-4.642412900310572e-05
5.453207594291024e-05
0.1125202119416286
0.1125251116062369
-1.531063657216081e-05
1.802147816578949e-05
-1.267782502959065e-06
0.1124914014534504
-5.281962316416963e-07
-1.316050858161185e-05
5.415412488408423e-05
0.1125189679281302
-3.813098450380454e-06
0.1124863153453735
-3.975242312795807e-05
-1.043026925312145e-06
-1.307977615106777e-05
-1.961946983540206e-05
6.598058437391438e-07
-0.1123760438097765
-1.308712407757886e-06
0.1123739418627885
2.237032338213116e-05
0.1123610973136202
6.373959584138333e-06
-3.588318246598981e-07
-5.603493030351147e-07
1.970760772520941e-05
0.1123596777390716
0.1123764884041911
-2.152114291316618e-07
7.336297624513556e-06
-1.111531016542951e-06
0.1123593059171366
0.1123743775362147
2.247615768343686e-05
-4.251210689950336e-07
7.300658881001688e-06
0.000330883880983103
-5.533823780557332e-06
-0.00732257626395914
0.007297905909459418
0.0003706857709273818
0.007198540269950118
-6.508151616578414e-06
-0.007222885938856929
-0.0003398356373437213
0.007197072676375824
0.0003652543323088608
-3.220193849715134e-05
-0.007221046849225587
-0.0003349393611341989
2.586114016873591e-05
-0.02900541662051097
-7.542182609403796e-05
-0.000516501469411662
0.02892667170521211
5.84629729720955e-05
0.0001525692423846145
0.0001459718275285335
0.0001506147661170425
0.0001630494018080319
-6.811244085961008e-05
0.0286926077132366
0.0002591187823029572
3.419388023672334e-05
-0.0008762283196875585
-0.02881398727487592
0.0002595490341204612
0.0002561802224204358
0.0002566784031043075
0.02868909069045527
0.0002565719690820097
-0.0001013072543393573
-0.000866149843928335
-0.02880897769308605
0.0002558406805660556
0.0002538416960989449
0.0002529773142511309
-0.02902814248173686
-0.0005343720086104556
-1.988905801511303e-05
0.02894489395372384
0.0001623315278323659
0.0001563213374381773
-1.338028512955449e-05
0.02840753429258463
0.0001236283832954651
-0.0001084460889953719
1.015733404333952e-05
-0.02841949363580122
-1.261685941204856e-06
9.576594441232543e-07
0.02833866479394412
1.235900983077261e-05
0.02832579006630876
-0.02833352513857063
-2.214113213179599e-06
8.614573154273556e-05
1.865588280167621e-05
-1.630711273095675e-05
0.02843957961342864
-5.073451199341097e-07
-8.642307257570623e-06
0.0283222946742722
8.43608179424136e-05
-0.02832987420899534
6.555481115763859e-06
0.02841287345605614
0.0001266433869157318
-3.43513898258021e-06
-0.0001109688831535307
-0.0284251169298548
-1.965391664502441e-06
1.820615046216754e-05
0.02843361806150994
-1.593156564719761e-05
1.493017036481226e-06
0.0001666275662479251
-0.008327914111651975
-0.0001891523256008196
0.008122858666353289
-0.008345004617047827
0.0001452593762163795
-0.001363342403237492
0.008137785859209117
0.000149620488087443
-0.008532900677821762
-0.0001700244128737305
-0.001260590428002529
0.0001303165190787522
-0.008552030594881093
-0.0012729824658685
-7.813000481361884e-05
0.007515339018201073
0.00038847301389599
7.184872604854199e-05
-0.007551790130213299
0.0005727667929638445
0.007653612464161755
9.034790352720784e-05
-9.970387344099601e-05
-0.00771242979585611
-0.0005045934913561907
5.247497479300655e-05
-0.0003633208258867797
0.007535454480424925
0.0004081360687935152
-5.899204988394895e-05
-0.00757375264824245
4.611283416636652e-05
-0.007882139524880842
0.007838407285258036
-5.21390074842655e-05
-0.000347052864281154
-0.007845601028558665
-7.048732226927678e-05
6.434659415325716e-05
0.007803890402793078
-0.0003308513061238474
-0.007640533070267664
-0.0002263825234976796
-5.002229072485551e-05
0.007615107008314156
0.0002558751071622189
4.595576901429807e-05
3.347844947489129e-05
-0.007666986093966808
-0.0002378768719804283
0.007640273388080684
0.0002687766469375995
-3.766551854626808e-05
0.000124913197069279
-0.008359917435453753
0.008150860404358
-0.008372635162905385
-0.001384525794053594
0.00816204810322951
-0.0001119781653575253
-0.008582830948558551
9.447183408599793e-05
-0.001292146197646127
-0.008568674352969256
-0.001283451746266685
0.007689066697438719
-5.340696445433008e-05
4.435962869282035e-05
-0.007751517583647835
-0.0005360777442890714
2.622806631470067e-05
0.007552989571443537
0.0004244149665711188
-3.279557154168386e-05
-0.007592817636216637
-0.0003679054996315942
0.007540854847078607
0.0004132312858541259
4.592742152339687e-05
-0.007579633080050794
-0.007891738638431907
0.007847495792275816
4.015230581957798e-05
-0.0003511743862232863
-0.00791280415050509
2.266818736726137e-05
-2.84339572832313e-05
0.007867476052200608
-0.000360103830266764
-0.007689760012481776
-0.0002474506085970278
1.669581178359609e-05
0.007661983440868982
0.0002794165527118835
-2.088518428687865e-05
-0.007674030458383932
-0.0002408657298686375
0.007646984371821458
0.0002721094340697697
2.928083181463373e-05
-0.0001000391568318264
-0.007865411531302068
8.8244594428793e-05
0.007781396543265003
-0.0006626605920930156
-0.007854693673173631
0.0007575738354597939
0.007771780392777502
-0.007785219468612845
-0.0001006227942945966
-0.0005818464959905371
0.007714981354522213
-0.0006024775128858419
8.927232306423148e-05
0.0006914803559661128
-0.0079329217347752
-0.0001000471045530273
-8.026651299436677e-05
0.0006104124632003552
7.090780459079681e-05
-0.007861684908980817
-0.0005343248312145232
-0.007851061505358477
-8.974615894035462e-05
-0.000527155830234934
7.870074189294548e-05
0.0007002336536861362
-0.007944661140656683
-0.0001588105831313864
2.242912769942155e-05
-0.008175271915251496
0.008152835289165872
0.0001840055662613357
-2.518748474624052e-05
-2.010341256588462e-05
0.0001608775161912799
1.773128129469554e-05
0.008047380736926608
-0.0001396301326358847
0.008190117360855398
-7.511985576440961e-06
6.610138294870582e-06
6.244752051036415e-05