/*--------------------------------*- C++ -*----------------------------------*\
  =========                 |
  \\      /  F ield         | OpenFOAM: The Open Source CFD Toolbox
   \\    /   O peration     | Website:  https://openfoam.org
    \\  /    A nd           | Version:  7
     \\/     M anipulation  |
\*---------------------------------------------------------------------------*/
FoamFile
{
    version     2.0;
    format      ascii;
    class       volVectorField;
    location    "0";
    object      U;
}
// * * * * * * * * * * * * * * * * * * * * * * * * * * * * * * * * * * * * * //

dimensions      [0 1 -1 0 0 0 0];

internalField   nonuniform List<vector> 
12693
(
(1.000685137596798 -2.292639519391189e-06 -3.862839123797532e-05)
(1.001302193529459 -6.929624425861142e-07 -4.990364023077259e-05)
(1.000785621859768 -1.245603761757214e-06 -4.847397640050445e-05)
(1.00050874192012 -2.289148147628417e-06 -4.861578276693535e-05)
(1.009527518919875 -5.084661036373526e-06 -0.0004152453805541868)
(1.004836918897064 -6.76494180965936e-06 -0.0003226250463908415)
(1.002897132334914 -2.879843339362374e-06 -0.0001588671322253053)
(1.001420665845052 -8.193529009906481e-07 -5.686894817303048e-05)
(1.000421296800832 -1.229900651718919e-06 -3.350766592463425e-05)
(1.000357587800624 -7.676681459624478e-07 -2.376797646303544e-05)
(1.000310757418879 -4.973702788764115e-07 -1.697918687481655e-05)
(1.000276196573058 -3.224656534868672e-07 -1.212104791189554e-05)
(1.000250787225871 -2.062820243296264e-07 -8.572788583541967e-06)
(1.000232420777355 -1.291520921390616e-07 -5.915053943118026e-06)
(1.000219682260416 -7.922942258500747e-08 -3.853330568316322e-06)
(1.000211648335087 -4.93174725313624e-08 -2.17162974741685e-06)
(1.000207762334107 -3.529879987922536e-08 -7.012697743412363e-07)
(1.04198236539104 -0.003524429830986024 -0.04712245122609485)
(1.010424756470318 -5.855810895622101e-06 -0.0004523387836504079)
(1.097659640813248 -0.01088692871169808 -0.08386269127623336)
(1.098732495946278 -0.009569707813160242 -0.0848636003115987)
(1.105831890878071 -0.01208795128968114 -0.09524412096603241)
(1.149822075083837 -0.0009027447383453436 -0.007680066193455984)
(1.13152292483653 -0.001726085290037179 -0.006645269071481755)
(1.093543287845206 -0.02263744876588316 -0.08220518582851161)
(1.107009932854093 -0.0106070283604801 -0.09634858753157892)
(1.151507388504144 -0.0007905742485001975 -0.007765703898213734)
(1.157288171914778 -5.175818937081091e-05 -0.008046843855269966)
(1.111115283617064 -0.0006919484824304719 -0.1000055776463023)
(1.001285047258765 -4.619152217660014e-06 -4.860228785357466e-05)
(1.001232270634207 -3.361150287025765e-05 -0.0003484174570011842)
(1.001248376868611 -4.92832856732711e-06 -0.0003570976403802731)
(1.001020290917564 -4.268560454327402e-07 -3.45464836872157e-05)
(1.000986165426195 -3.225941109043955e-06 -0.0002538693543007366)
(1.00100964079145 -2.661137479796485e-06 -3.384167962120476e-05)
(1.000976131178855 -2.020085571809227e-05 -0.000250238885451061)
(1.008989358466766 -6.87876799407377e-05 -0.0003787917471776814)
(1.007357495582633 -0.0009561064694246932 -0.004919480365056519)
(1.00774555889611 -6.796443371518246e-05 -0.005345789070174027)
(1.005586140278119 -8.565712714111642e-06 -0.0003927576843125689)
(1.004944981905605 -5.6079955996649e-05 -0.002578228807996977)
(1.005387314368053 -5.625706235559768e-05 -0.0003698603215933979)
(1.004782776084734 -0.0003705762742359425 -0.002432152566423581)
(1.004331821823352 -4.457103389477513e-05 -0.002134116453073792)
(1.004679380357239 -4.459368582530936e-05 -0.0003053020813958875)
(1.004200685804699 -0.0002960081051530309 -0.002022870482434067)
(1.003265147737467 -3.523037949904283e-06 -0.0001877039859870603)
(1.00300289558834 -2.360627709441182e-05 -0.001266286894154488)
(1.00318227364353 -2.341544585414286e-05 -0.0001796737466695165)
(1.002930853572586 -0.0001584431377332375 -0.001213647139682707)
(1.002682679745207 -1.939526811914239e-05 -0.001078203979307624)
(1.002829146711877 -1.917435117046603e-05 -0.0001525271388882241)
(1.002622938124612 -0.0001305252065300635 -0.001036432933614325)
(1.002083187488281 -1.634460247968715e-06 -9.958250370539656e-05)
(1.001960733879597 -1.118190450951702e-05 -0.0006881634599421989)
(1.00204411153371 -1.091706745216134e-05 -9.630339650642408e-05)
(1.001925489301707 -7.574164315265785e-05 -0.0006663135971315323)
(1.0014005632174 -5.47421823558939e-06 -5.533806373444673e-05)
(1.001339041708013 -3.931557325871921e-05 -0.0003935574780945729)
(1.001357731643202 -5.767357194140031e-06 -0.0004037940867775007)
(1.001882495105655 -1.36790081001812e-06 -8.604775782445427e-05)
(1.001779600541038 -9.413281940232839e-06 -0.0005984028384460881)
(1.001849620032844 -9.141298870638857e-06 -8.337419970660883e-05)
(1.001749730858839 -6.387700202859826e-05 -0.0005805431668343344)
(1.05370556200841 -0.004199597105539563 -0.03424009023712793)
(1.043484275012636 -0.003738716589736412 -0.01433336441888681)
(1.045646573445765 -0.008925118063486935 -0.0323238072607985)
(1.024083014571403 -2.069351229762483e-05 -0.001376473120619675)
(1.016312341282092 -0.0002569516423723425 -0.01682098287254614)
(1.021916515572603 -0.000274996721584148 -0.001196100439005495)
(1.015121556859988 -0.003457659070601121 -0.01471493570441459)
(1.00980670188296 -7.901689927739436e-05 -0.0004108282214753521)
(1.007937624389407 -0.001066753091058076 -0.005491327400991171)
(1.00836638294195 -7.756501198212752e-05 -0.006007522608507767)
(1.021402815269673 -1.74136966983706e-05 -0.001176927577523677)
(1.014943665675361 -0.0002185508772287929 -0.01460366525006547)
(1.019578432861924 -0.0002317126020610089 -0.001029162648868293)
(1.013897235210474 -0.002947589885234439 -0.01285054891816586)
(1.19227127482113 -0.01699239271774398 -0.1122186699297255)
(1.156089021350829 -0.02287934947132371 -0.1881779968767522)
(1.153741462542297 -0.02577799094299492 -0.1858518260542157)
(1.200886461779585 -0.01187667410273678 -0.1165608438649588)
(1.134736289790072 -0.0008096823022182027 -0.00666938569781436)
(1.069943478836211 -0.0003801708045225142 -0.002794407813064289)
(1.068710404231321 -0.009591455282679953 -0.04953346331487311)
(1.062642533644277 -0.0006540055383574024 -0.002416301872735922)
(1.118489771392029 -0.001517082953649859 -0.005756580296401267)
(1.059455237432673 -0.01119808060039515 -0.04017686627454822)
(1.086530231146135 -0.02004316142970546 -0.07227571239131307)
(1.175957003881471 -0.01365363143899568 -0.2256314041100708)
(1.207997886154755 -0.00596855244328141 -0.1198270229999411)
(1.160031554973724 -0.01746212289683991 -0.1918736406218653)
(1.203113125797704 -0.01031601326783746 -0.1176136532202024)
(1.162995895798413 -0.01246818726762362 -0.1944886095582413)
(1.136249784225907 -0.0007104867457443882 -0.006746624558628029)
(1.070658499355826 -0.0003368253918134317 -0.002829977034626376)
(1.073831921009383 -0.003804511276572014 -0.05417689714331049)
(1.074202764797965 -0.002960014810509581 -0.05449697597433049)
(1.141467349524687 -4.690508785773196e-05 -0.007002315648820884)
(1.102482625858913 -0.0006281269792879315 -0.08820297047843287)
(1.172473185298357 -0.01517785654307401 -0.09576604170107159)
(1.12444218758354 -0.01487355772433923 -0.1241617812603661)
(1.132480655378733 -0.007794676567275876 -0.06447122548912505)
(1.111670450589871 -0.01683247162850756 -0.1055336699597621)
(1.121062456032536 -0.01875447905406082 -0.1208382717740066)
(1.12683399849713 -0.01077233713439531 -0.06156997418162326)
(1.180235898687834 -0.0107097279371732 -0.09972011448566558)
(1.183773510269231 -0.01204014054329629 -0.07720658826100564)
(1.139178718769696 -0.006161966422361815 -0.05155064646413507)
(1.211008073278545 -0.001245837477939052 -0.0121162887004763)
(1.143395374881934 -0.001251034664069849 -0.007338369246459118)
(1.133228982454559 -0.00852557445695523 -0.04924164120305861)
(1.192008745828887 -0.008481918908148724 -0.08036049937617695)
(1.202026205383486 -0.001772756447966681 -0.01164819900191285)
(1.206139182603759 -0.01348977038428498 -0.09078087509633592)
(1.238706409148347 -0.001383495415884254 -0.01428118335630216)
(1.215299682437598 -0.009411766318069552 -0.09424651597707144)
(1.228683620663213 -0.001988221682120834 -0.01376653855315499)
(1.256375863397213 -0.01886208116498042 -0.08798885942179063)
(1.238213712455809 -0.003366190208375114 -0.01510947028688878)
(1.224948155750345 -0.01650816058213326 -0.07305555487573562)
(1.202342643990341 -0.01498193590949263 -0.0892436694879777)
(1.224504801187416 -0.002210721873921987 -0.01353764205463283)
(1.158718676044241 -0.03832257002070152 -0.1561394861522843)
(1.178452429049763 -0.03366151539862474 -0.1408055415627678)
(1.188715714527101 -0.01885747068039106 -0.1102962748120686)
(1.145165741924267 -0.03532592019162519 -0.1764621469606814)
(1.161840181907799 -0.006702800241650106 -0.02684953497697774)
(1.126840201737276 -0.008501593281792076 -0.03252742159996509)
(1.157263811987765 -0.0110489124946824 -0.04399656119580122)
(1.180382824898676 -0.01331691506964894 -0.07582246381385734)
(1.140784372018325 -0.001370123684230157 -0.007192733500129187)
(1.130820755046447 -0.009331018177531947 -0.04825976692053648)
(1.198307991424297 -0.001962774107064217 -0.01144220332002236)
(1.109477686546693 -0.02900628828477683 -0.1077470766867161)
(1.120311610100841 -0.02003475560176093 -0.07571831806330735)
(1.132302874924404 -0.02277846107308885 -0.08761160455354786)
(1.169289102502161 -0.0167758328163908 -0.09403396592998307)
(1.097749142608046 -0.01967326961380155 -0.08698179584305038)
(1.114633639434475 -0.02486752618606246 -0.1139106833998997)
(1.124554256045716 -0.01178470420565244 -0.0603380890950894)
(1.186698805227575 -0.005422641912941597 -0.1027339857617851)
(1.125858472277966 -0.01300064157016938 -0.1254926624802101)
(1.133969820584773 -0.006830918685146118 -0.06520075967051528)
(1.108921052615248 -0.007701563249340185 -0.09808778184667251)
(1.182253447209983 -0.009324584616441393 -0.1006874952124494)
(1.128147595141482 -0.009380523499887517 -0.1275692085182162)
(1.137287291734964 -0.00402977419956465 -0.06677285097775637)
(1.198831779060856 -0.004289189438917413 -0.0827592220476531)
(1.140744193949323 -0.005398468398234994 -0.05213049088621657)
(1.213323929138864 -0.001083629702966636 -0.01223041980230831)
(1.155247680348049 -0.0004657818639997595 -0.007949888822689906)
(1.194142022601644 -0.007381902266887986 -0.08113092467643671)
(1.144226174118296 -0.003182648075445239 -0.05337896104106091)
(1.218400580828443 -0.0006289375403031551 -0.01247171612427842)
(1.22282083158674 -0.004723439645622161 -0.09684785407709903)
(1.241274453064257 -0.001200415655038418 -0.01440559400125996)
(1.217658678449169 -0.008171426159248962 -0.09508552928027321)
(1.246877409602908 -0.0006930758947608011 -0.01466733005617338)
(1.22393369183793 -0.003642997843118608 -0.09721422199256763)
(1.249847296568414 -7.560962408838129e-05 -0.01479927721171398)
(1.225565313462345 -0.0005143286231016211 -0.09774077306131669)
(1.24808278157054 -0.0005344458809041718 -0.01472196059764811)
(1.199848805698237 -0.003311732207582805 -0.08310040816527792)
(1.156067759971103 -0.0003608041490048109 -0.007989188873893452)
(1.221117773839995 -6.895504393885113e-05 -0.01259506447480196)
(1.146129930965836 -0.0003505450852830362 -0.05403754208798794)
(1.144990965216935 -0.002465151833089392 -0.05364557408750965)
(1.20134890748686 -0.0004684395041651445 -0.08359515583442303)
(1.219499174248918 -0.0004855447337674139 -0.01252235416459843)
(1.187664871077027 -0.004187611285901238 -0.1031631386809055)
(1.120052157258179 -0.00381632403625591 -0.1133465173826248)
(1.139104235189402 -0.0004438553450609091 -0.06760283657533032)
(1.130758228850627 -0.0008366928712381783 -0.1298273293629828)
(1.1302403620031 -0.004197030826161728 -0.1293887641721251)
(1.138016939772984 -0.003121718961193847 -0.0671088037881224)
(1.189091306563257 -0.0005923783657300349 -0.1037855978018499)
(1.209053572356762 -0.00460412670285776 -0.1202875129859541)
(1.166107706507321 -0.003302531814753421 -0.1970835715111406)
(1.165672072536024 -0.005526909506016464 -0.1967306607139805)
(1.210603690818584 -0.0006500959198861993 -0.120949582786895)
(1.084726795026711 -0.02472766220451855 -0.08842922935660874)
(1.09559624070363 -0.01327568472622141 -0.1025110609747499)
(1.078991846921852 -0.02193678385389903 -0.07804458516981046)
(1.05579706784673 -0.01235464634285584 -0.04399614277326391)
(1.088902781000054 -0.01197047407821907 -0.09058409100421386)
(1.064083691612351 -0.01058198134433479 -0.05410452387171516)
(1.096651451682859 -0.01165554517064392 -0.1037112510350245)
(1.100347661387205 -0.0007617104144696714 -0.1076948337699349)
(1.089868354349105 -0.01052715525381601 -0.09167320180367387)
(1.068769995660333 -0.00420493069446998 -0.05918185465329605)
(1.069110607072329 -0.003271997007657916 -0.05953267255098636)
(1.093258435935139 -0.0006920581863418038 -0.09531473836824104)
(1.248786803277959 -0.02081859157996774 -0.08545240390815145)
(1.231180558097211 -0.003690039557516335 -0.01465015764863983)
(1.218322705933262 -0.0180769980504759 -0.07081999815116759)
(1.154201595748529 -0.04170920615768869 -0.1511813018713271)
(1.173294572787724 -0.03670743470587708 -0.1363820101681203)
(1.127967352964186 -0.001839821563814657 -0.006422849250167523)
(1.123441185080899 -0.009058419208327454 -0.03143989020522187)
(1.157268886863575 -0.007206649468895136 -0.02595807846574855)
(1.152844727553843 -0.01187451149612495 -0.04253448814382872)
(1.11713080326545 -0.02138972155041601 -0.0731837571489032)
(1.091253087679817 -0.02404334900035901 -0.07947017057096505)
(1.106659096497503 -0.03102578652291191 -0.104141277830198)
(1.12871808006638 -0.024421760917551 -0.08468700076387858)
(1.001186863596129 -5.390487380589689e-06 -0.0001365136675155134)
(1.001299305438545 -2.03399153225394e-06 -4.96855407187225e-05)
(1.001292997804677 -2.13235101757927e-06 -0.0001547434205760724)
(1.00119720761483 -5.860742813730892e-07 -4.394938450036119e-05)
(1.001290139601929 -6.336623349134342e-06 -0.0001540965631806078)
(1.001189311948226 -1.817066362927546e-06 -0.0001370555592156926)
(1.001194738893353 -1.715488613227976e-06 -4.376627212975952e-05)
(1.00078004936539 -3.6191854621755e-06 -4.788121589382765e-05)
(1.000765130757484 -1.090051544225765e-05 -0.0001445756168780501)
(1.000771131749356 -4.153283965119733e-06 -0.0001487392019723716)
(1.000945521912125 -3.736478763890482e-07 -3.15205500115404e-05)
(1.000915279990795 -3.208712315985534e-06 -0.0002288583409097292)
(1.00093596211199 -2.276103998568134e-06 -3.097953024436174e-05)
(1.000839351494298 -1.602856534712347e-05 -0.0001371624328408608)
(1.0073827582961 -0.0001241974331323036 -0.001755889311411269)
(1.009408358534072 -3.432989288289249e-05 -0.000407062370966403)
(1.009117483079587 -3.44571833852523e-05 -0.002712731105735316)
(1.007625866162848 -1.417313568321583e-05 -0.0005995453872518225)
(1.009006185821341 -0.0002358902054442194 -0.002660801893174131)
(1.00743661045623 -4.190046682042208e-05 -0.001776809716585231)
(1.007569857452129 -4.189283088900618e-05 -0.000592435639605301)
(1.004126403468024 -4.763380204295153e-05 -0.0007919365669071369)
(1.004748960776076 -2.008005988009004e-05 -0.0009619697464389972)
(1.004810082757373 -2.000422331486828e-05 -0.0003196473561814858)
(1.004217034518054 -5.395463725539119e-06 -0.0002673078942059587)
(1.004722923893101 -5.960526044606378e-05 -0.0009531742664411874)
(1.004147257950243 -1.603896171352845e-05 -0.0007986639013473097)
(1.004195596623062 -1.595560996501155e-05 -0.0002650326364110515)
(1.002543905906305 -2.109922924432593e-05 -0.000405383819954318)
(1.002860218076373 -8.60445234519738e-06 -0.0004778991950120957)
(1.002885618704523 -8.511378359358823e-06 -0.0001577851585214708)
(1.002583579943352 -2.370112103422556e-06 -0.0001352529456365645)
(1.002848948588153 -2.557977404466796e-05 -0.0004746915885850271)
(1.002553220748068 -7.095999246378485e-06 -0.0004079363414474523)
(1.002574078399974 -7.001737145046139e-06 -0.0001343924862624337)
(1.001538397692078 -8.772176823647404e-06 -0.0001987682519173169)
(1.001417281038065 -2.408779737455817e-06 -5.66102060706098e-05)
(1.00140991565744 -2.505679165165048e-06 -0.000175425275791149)
(1.001554934461193 -9.695313665628039e-07 -6.50411652982634e-05)
(1.001406571426175 -7.4502889571853e-06 -0.0001746573338486765)
(1.00154232037105 -2.949711346582554e-06 -0.0001996864634728815)
(1.001550958642255 -2.853471079313603e-06 -6.473192172847336e-05)
(1.042431543243074 -0.0003948364962000207 -0.04783253844007809)
(1.028242131763163 -0.0004642915459422717 -0.05381356465338119)
(1.028005601795871 -0.004139871040816112 -0.05303084686683136)
(1.032635206622215 -0.002386486614999189 -0.0213718436173366)
(1.02505101166024 -0.001823603036876371 -0.03612299301278548)
(1.024898960089746 -0.003019894024912209 -0.03569931455701263)
(1.033365336787073 -0.0003547126877736561 -0.022189176963916)
(1.012938003344584 -0.0004195565006256164 -0.004394309472125933)
(1.010287755029475 -3.955968423101035e-05 -0.0004430351636254956)
(1.009948536201804 -3.952206982594727e-05 -0.003073995729356752)
(1.013900137652024 -9.117127763269261e-06 -0.000662021230118322)
(1.009821153458121 -0.0002708995699298057 -0.003011697511612261)
(1.013133408779554 -6.130436671228698e-05 -0.004499167194552141)
(1.013686836042236 -6.164590508896139e-05 -0.000646394647055418)
(1.168445220334858 -0.02527063377070122 -0.218870831316327)
(1.170730255943422 -0.02215325015482947 -0.2210179764284666)
(1.196496609959199 -0.02268388760068701 -0.204797968792102)
(1.19907742268876 -0.01986627050797688 -0.2067447769500057)
(1.07412202279659 -0.01069197888630531 -0.05555813995075841)
(1.095115123388888 -0.01354488136192522 -0.08140687509586171)
(1.077124497296245 -0.007946431894691247 -0.05837952602942766)
(1.120220522214798 -0.007001512641808337 -0.05627841693863928)
(1.115146763238502 -0.009608227879242358 -0.05367939149175871)
(1.087514564457368 -0.00684194913844168 -0.03651356191315871)
(1.091197945238577 -0.005071638557609522 -0.03836136397968615)
(1.1727403091673 -0.01919076612132377 -0.2228399868696765)
(1.174480866706347 -0.01636394629594858 -0.22436915713416)
(1.203290325115746 -0.01465221564363991 -0.2097784106903246)
(1.201338811282908 -0.01719534568081893 -0.2083949519707314)
(1.100475746723664 -0.006968015275779132 -0.08644655961674795)
(1.079757613824198 -0.004207860186735792 -0.06073353002441219)
(1.077932156691769 -0.007015076155442806 -0.05911375864668104)
(1.121564060697489 -0.006147408850339159 -0.05693753300534403)
(1.124566125732525 -0.003641925170782354 -0.05836604061497829)
(1.094400035002168 -0.00267912260210918 -0.03989446010981415)
(1.092182981018883 -0.004473941109960247 -0.03884042143400755)
(1.114747648641779 -0.01341415011907034 -0.1085486536945524)
(1.113291001782013 -0.01510932555322636 -0.1071432241978862)
(1.104505873814562 -0.01358672314753513 -0.09397097890941364)
(1.124627439133431 -0.01348641848230849 -0.09761152941521836)
(1.11556021652362 -0.01077158170266399 -0.08644414105911753)
(1.114101869427822 -0.01211381318072204 -0.08529789208885548)
(1.126236259634179 -0.01196584852580283 -0.09887846600850216)
(1.16292377337605 -0.00339175686592284 -0.02613926492174627)
(1.147996653658169 -0.002695716789966939 -0.02287981518125241)
(1.167231684299004 -0.001006002659488826 -0.008889619881712179)
(1.147910908324191 -0.001016976984455724 -0.007580955793457536)
(1.146109119817241 -0.003036678062696431 -0.02258428103965675)
(1.165028244563985 -0.003003674695829858 -0.02646708743140378)
(1.165099835993 -0.001136059689011866 -0.00877966608270659)
(1.30068225941078 -0.005794977292951517 -0.05963346070694903)
(1.310596155986879 -0.001695618941918864 -0.0202826482285231)
(1.304245618471824 -0.005060926807329287 -0.06014526006678834)
(1.306978088189277 -0.001941767407123139 -0.02011103070590486)
(1.273196505284641 -0.003848322451664016 -0.01825487976736052)
(1.267489613683757 -0.01146712882803364 -0.05410259438626674)
(1.27464042015729 -0.01034262955012246 -0.05542070912659754)
(1.280487735898066 -0.003469656310348881 -0.01869782127868783)
(1.173744032822096 -0.04356213375345149 -0.1841634814987105)
(1.148755848946678 -0.04805010246438474 -0.1962843495709102)
(1.15274779043683 -0.04373956491403009 -0.20155115575465)
(1.178441289015502 -0.03956512045089038 -0.1890031691599201)
(1.129943701970304 -0.005151458463278123 -0.01979660818816192)
(1.144693857672915 -0.005871057832398726 -0.0229788302164896)
(1.146606503900325 -0.001967796372165521 -0.007718594561321669)
(1.148417972733831 -0.005451241564601719 -0.02367085991712557)
(1.134847188422209 -0.001608817206245665 -0.00684720419519843)
(1.133219988539999 -0.004801941339746055 -0.02039788343761319)
(1.150388261369924 -0.001826850719576118 -0.007951093493680745)
(1.101183452401457 -0.02560735426111885 -0.09390089198482446)
(1.111103062149395 -0.02297506187628174 -0.0856054149891035)
(1.101929286721488 -0.02027238674651243 -0.07465061195148046)
(1.095711100162473 -0.02117387628835743 -0.08470763247527774)
(1.103585519872423 -0.02387462426328599 -0.09675475001061264)
(1.113807881139602 -0.02139913526643103 -0.08820308202479156)
(1.104352535678751 -0.01894605249317078 -0.0769230274276619)
(1.116040044991564 -0.01174865988197813 -0.1097633994159369)
(1.108039656633848 -0.009144995647210257 -0.09729370437866419)
(1.117168336736942 -0.01011268940460202 -0.1107995271881147)
(1.128901286612593 -0.009011557024338366 -0.1009044801814891)
(1.116853266778491 -0.009447305086738489 -0.08743754871584732)
(1.117981545159779 -0.008141646175079465 -0.08828689081478626)
(1.127660435530824 -0.01047440362491469 -0.09997233713514948)
(1.168485311702505 -0.002255152851532771 -0.02698910906221569)
(1.149661525379263 -0.002360834276854393 -0.02313521459220914)
(1.169107200811025 -0.0008791154406685593 -0.008984253461519598)
(1.152970890652779 -0.0006804470931863018 -0.00783873425121754)
(1.151107571095303 -0.002031980998983832 -0.02335304100656003)
(1.166880166576111 -0.002624953644109471 -0.02674926964433965)
(1.170732436458159 -0.0007552468550210334 -0.009064681648230218)
(1.309987649582387 -0.003716632505259208 -0.0609407702516197)
(1.313736358069256 -0.001464092387250773 -0.02042794085452117)
(1.307339303961216 -0.004370189960973481 -0.0605782231843123)
(1.316424045380771 -0.001245101366879136 -0.02054978048920776)
(1.172979664860589 -0.0005072001752704172 -0.02763746237728855)
(1.157085680866151 -0.0001541211209686487 -0.008037380472318303)
(1.175504303761841 -5.704206110997491e-05 -0.009292225761890392)
(1.155374815979831 -0.000153433298899663 -0.02397421752035041)
(1.15517460128578 -0.0004594236215545149 -0.02394582148105426)
(1.173199871975872 -0.0001692799906850283 -0.02766828332355198)
(1.175281531088941 -0.0001701017375271247 -0.009281999571145512)
(1.120528514097498 -0.0007613983248126887 -0.1137533291856279)
(1.120369950379745 -0.002285001831109676 -0.1136183525182848)
(1.110969690933995 -0.002075985128111856 -0.09988091946495695)
(1.132409028910768 -0.00203351012032526 -0.1034355206782948)
(1.12134011970891 -0.0006153203623954513 -0.09071964742686098)
(1.121181549831873 -0.001846034186549674 -0.09060799327828283)
(1.132582188740713 -0.0006776029418289829 -0.1035564730719785)
(1.179309040481805 -0.003603730807584334 -0.2283705056723854)
(1.179539320495037 -0.001198908072273345 -0.2285501684336335)
(1.208661051591617 -0.003220342480626024 -0.2133785497238832)
(1.208914704522525 -0.001070986388177867 -0.2135375387573325)
(1.001182005510701 -8.875737970852567e-06 -0.0001354141455000154)
(1.001293566092068 -3.34731517406532e-06 -4.925099032271016e-05)
(1.001276022337579 -1.445407641340478e-05 -0.0001508724660820316)
(1.001182592516432 -3.877939810262634e-06 -4.283475310996299e-05)
(1.001284458335372 -1.045822663622546e-05 -0.000152804365982025)
(1.001189842369161 -2.815881047830235e-06 -4.339674733442726e-05)
(1.001174804910154 -1.223607908241564e-05 -0.000133731740589523)
(1.001166653015792 -1.487456703741077e-05 -0.0002258186554234602)
(1.001258304060489 -2.415094780749818e-05 -0.000251230400723882)
(1.001240285595577 -2.429237442720385e-05 -0.0003527355241277228)
(1.001137202648825 -2.869941366158135e-05 -0.0003097372973264664)
(1.001266574398456 -1.746457954186378e-05 -0.0002543938832042532)
(1.001144136291054 -2.075496652202813e-05 -0.0003134573560452752)
(1.001159548783169 -2.053105445747636e-05 -0.0002230770013208857)
(1.001171428011721 -9.021926132376857e-06 -0.0002276191969517835)
(1.001274935972884 -3.549345782546926e-06 -0.00025757540788571)
(1.001245670110021 -1.469819776723711e-05 -0.0003556417796772152)
(1.001151101002211 -4.219647402986472e-06 -0.0003171507172789272)
(1.00127213820827 -1.057346083542466e-05 -0.000256513946247335)
(1.001173832237263 -3.032738655585222e-06 -0.0002285059071971113)
(1.001148768053832 -1.256970884701413e-05 -0.0003159340158341513)
(1.001094837960174 -4.592997065966397e-06 -0.0001214127262665256)
(1.001103772632141 -4.96961954434513e-07 -3.885125222779723e-05)
(1.001014302506255 -1.355333889492359e-06 -0.0001085234974048711)
(1.001018438511048 -1.233027421784182e-06 -3.443175625262673e-05)
(1.001012436512062 -3.962231939793968e-06 -0.0001082251570920981)
(1.00109694875126 -1.55535812055225e-06 -0.0001218462063002854)
(1.001101652197905 -1.446941051661566e-06 -3.870267744748241e-05)
(1.001081545164262 -7.718871038409919e-06 -0.0002029047255610377)
(1.001064208542582 -3.634793603181747e-06 -0.0002829960465747812)
(1.00100264742525 -2.29144221328074e-06 -0.0001821461874638776)
(1.000984385517952 -9.402860756407954e-06 -0.0002534691933741788)
(1.001000775476856 -6.711350302176971e-06 -0.0001817072821555213)
(1.001083626098012 -2.606201929168084e-06 -0.0002036015200099297)
(1.001062196313255 -1.077484699806625e-05 -0.0002820614918473363)
(1.001090676821283 -7.503066169528778e-06 -0.0001205016761825801)
(1.001091334501001 -3.22349471913656e-06 -3.791698944311224e-05)
(1.001014832706867 -1.981267411673417e-06 -3.420506415960482e-05)
(1.001003615439121 -8.265148759409259e-06 -0.0001065188498684933)
(1.001008824183382 -6.358382990203597e-06 -0.0001075386357539259)
(1.0010974712348 -2.357789491559442e-06 -3.839707325135225e-05)
(1.001084556213112 -1.021990015172928e-05 -0.0001190429403636656)
(1.001077444248081 -1.26395365550581e-05 -0.000201426391720803)
(1.001052253606168 -2.435725399318764e-05 -0.0002768435934422746)
(1.000981226742615 -1.52121440459546e-05 -0.0002521487718367964)
(1.000991921715791 -1.416949863938438e-05 -0.0001790534708540198)
(1.000997206796441 -1.080234035053087e-05 -0.0001806598639457355)
(1.00105826622038 -1.770977967711075e-05 -0.0002800148413054599)
(1.001071338450761 -1.727387106204598e-05 -0.0001990712156103884)
(1.007276725790934 -0.000202554910658218 -0.001714898206509191)
(1.009330268491719 -4.358792488867109e-05 -0.0004018215711248198)
(1.008094720207029 -0.000298381568798911 -0.001706811558167427)
(1.007298672784332 -9.249449696537795e-05 -0.000558351036090951)
(1.008933181829787 -0.0002998811862470438 -0.002624702051443733)
(1.007459630581505 -6.826997520933178e-05 -0.0005785176578101996)
(1.007121776159935 -0.0002745934909926022 -0.001655452283288394)
(1.006923442945655 -0.0003292521113764315 -0.002780229042463952)
(1.008075572901494 -0.0007242427927384016 -0.003772017776356746)
(1.006993803936377 -0.0006311265097283632 -0.004518047269902022)
(1.006297438701742 -0.0006008888601269713 -0.00360250270773417)
(1.008676552231871 -0.0003798494302040982 -0.003356513397896633)
(1.006422949100948 -0.0004439425018892979 -0.003734082105736335)
(1.006780089886021 -0.0004465842474961183 -0.002684160260951188)
(1.007021477477256 -0.0002017774961930739 -0.002846180451917474)
(1.008852581646109 -4.358871296757358e-05 -0.003467974592230117)
(1.007702649251941 -0.0003362284187753246 -0.005294482312178806)
(1.006553868559313 -9.163252396515167e-05 -0.003866661305566529)
(1.008746312861993 -0.0002987560159419259 -0.003401739393220417)
(1.006509851749995 -0.0002719673361011893 -0.003822040516350308)
(1.007071212848613 -6.802283106761526e-05 -0.002879799477365946)
(1.006313430035552 -9.620236014367185e-05 -0.001417983899871903)
(1.006499983426491 -1.095981400197684e-05 -0.000482716126695134)
(1.005474004876283 -2.538935326671563e-05 -0.001168726512493145)
(1.005552209084031 -2.532557432442897e-05 -0.0003888168782605299)
(1.005441179293224 -7.532386400016037e-05 -0.001157096647263181)
(1.006355252806713 -3.24429103997228e-05 -0.001433516973145618)
(1.006456622955144 -3.239935493448209e-05 -0.0004774474052073118)
(1.006036148110076 -0.0001566050029959161 -0.002305209707891654)
(1.005676371255209 -7.130285699625844e-05 -0.003142066013303051)
(1.005256270644751 -4.138865450591231e-05 -0.001904887768314154)
(1.004917291236918 -0.0001665341077436337 -0.002553072164197551)
(1.005225576869266 -0.0001228740104863789 -0.001886086453742869)
(1.005641671628754 -0.000211603958492447 -0.003108607575658728)
(1.006075011297512 -5.278001217009435e-05 -0.002330272414009309)
(1.006231047158657 -0.0001570554963156675 -0.001387508406335094)
(1.006246333101009 -7.172580577272595e-05 -0.0004521224380790636)
(1.005485308143999 -4.136799545577806e-05 -0.0003810891638541846)
(1.0052816484929 -0.0001675305929698736 -0.001101106190743454)
(1.005376456440136 -0.0001231338463406134 -0.001134274760022252)
(1.006371215733116 -5.285625573052308e-05 -0.0004671200541513297)
(1.006110592011728 -0.0002132089329488805 -0.001343218553109729)
(1.005959609699177 -0.0002556942795690571 -0.00225599430506015)
(1.005474176349378 -0.0004685224470315357 -0.002947016693165334)
(1.004862705558393 -0.0002722891834915862 -0.002503722783276023)
(1.005076421532115 -0.0002733790411334787 -0.001795581100651267)
(1.005165060401034 -0.0002008987957993563 -0.001849188801390551)
(1.005573412267849 -0.0003453909356735725 -0.003042813353502437)
(1.005847812670731 -0.0003470985840110666 -0.002184380552212876)
(1.003991407205375 -7.802083556287655e-05 -0.00129661200374483)
(1.004577737796793 -3.279914471503022e-05 -0.001571597152645064)