/*--------------------------------*- C++ -*----------------------------------*\
  =========                 |
  \\      /  F ield         | OpenFOAM: The Open Source CFD Toolbox
   \\    /   O peration     | Website:  https://openfoam.org
    \\  /    A nd           | Version:  7
     \\/     M anipulation  |
\*---------------------------------------------------------------------------*/
FoamFile
{
    version     2.0;
    format      ascii;
    class       volVectorField;
    location    "0";
    object      grad(Phi);
}
// * * * * * * * * * * * * * * * * * * * * * * * * * * * * * * * * * * * * * //

dimensions      [0 1 -1 0 0 0 0];

internalField   nonuniform List<vector> 
12670
(
(-0.9991680466026741 -0.0002857259832770057 4.241596419114731e-05)
(-0.9993415046491014 -0.0002020512289958333 2.926423630104963e-05)
(-0.9994741616426996 -0.0001483310674753011 2.141828263350627e-05)
(-0.9995729684511534 -0.0001101787707284816 1.586947387237747e-05)
(-0.9996471418060148 -8.233393360389784e-05 1.183732415113938e-05)
(-0.9997028969126384 -6.145360236345162e-05 8.823871745247589e-06)
(-0.9997445123940937 -4.533523816420808e-05 6.503466192855024e-06)
(-0.9997749517117426 -3.247757097172528e-05 4.655920033759125e-06)
(-0.9997962511276791 -2.181798163316056e-05 3.126357669329648e-06)
(-0.999809766337577 -1.256803608424155e-05 1.800391354398993e-06)
(-0.9998168656907799 -4.10501483352566e-06 5.879683884097027e-07)
(-0.9990869895073916 -0.0001834864593229384 4.537327226874054e-05)
(-0.9992870136007047 -0.0001288996978071183 3.104785903782095e-05)
(-0.9994362425001877 -9.392963580268173e-05 2.257457281894491e-05)
(-0.9995459080618408 -6.933651205255953e-05 1.66331356806204e-05)
(-0.9996272926329046 -5.155639107088043e-05 1.234935015697998e-05)
(-0.9996879090486817 -3.833187245121177e-05 9.170795879480069e-06)
(-0.9997328295994399 -2.819326121792019e-05 6.73895711975188e-06)
(-0.9997655066125581 -2.015178194604913e-05 4.813478441551211e-06)
(-0.9997882794607938 -1.351585790945558e-05 3.226804522065678e-06)
(-0.9998026894785703 -7.777575292347375e-06 1.856236730316654e-06)
(-0.9998102460981091 -2.539040973837943e-06 6.058850066643301e-07)
(-0.9992105303452264 -0.0002750388867273232 0.000179608798525755)
(-0.9993713685684643 -0.0001952982398440304 0.0001271432145085004)
(-0.9994949713629016 -0.0001439343921431157 9.344215584448772e-05)
(-0.9995878531545099 -0.0001072660067565809 6.948119497425372e-05)
(-0.9996580876521766 -8.03745836628003e-05 5.197683790606593e-05)
(-0.9997111834419665 -6.012169902267188e-05 3.883268620433903e-05)
(-0.9997509876047884 -4.442848864053598e-05 2.867075690000966e-05)
(-0.9997801982910556 -3.186942982129456e-05 2.055262146329586e-05)
(-0.9998006873954487 -2.142957001251571e-05 1.381357216816528e-05)
(-0.9998137099066383 -1.235182806326746e-05 7.95968418829215e-06)
(-0.9998205572836003 -4.035607645707289e-06 2.600226366721953e-06)
(-0.9991335174721367 -0.0001760466613412721 0.0001916598227298566)
(-0.9993194701327873 -0.0001245161750650624 0.0001347491944175723)
(-0.999458636802546 -9.11127194935817e-05 9.843370419045489e-05)
(-0.9995617936756193 -6.748206295161242e-05 7.279712206082181e-05)
(-0.99963888591081 -5.031514537251808e-05 5.420849835964912e-05)
(-0.9996966251950073 -3.749197141975212e-05 4.034930021140827e-05)
(-0.9997395990033163 -2.76237700368691e-05 2.970278939000411e-05)
(-0.9997709629924867 -1.977109849308298e-05 2.124448452590729e-05)
(-0.9997928737470239 -1.327332818426348e-05 1.425530001961124e-05)
(-0.9998067612642463 -7.64279683959007e-06 8.205511035676296e-06)
(-0.9998140512002791 -2.495810309276475e-06 2.679132119223293e-06)
(-0.9988342295555448 -0.0001956603608486795 2.28115493033522e-05)
(-0.9988975099664644 -0.0001880175865990888 0.0002042089289108291)
(-0.9976794656170752 -0.0009312850266787518 4.02804083703139e-05)
(-0.9973323221296632 -0.000550347283017054 4.50676998594665e-05)
(-0.9984884365460436 -0.0002604524762209651 1.601030448589246e-05)
(-0.9978209091004078 -0.0008867997974731563 0.0005175894599733805)
(-0.9974991813465954 -0.0005227381781753886 0.0005776506041580096)
(-0.9985721697871026 -0.0003035995609194486 0.0003379852046454779)
(-0.9934240036397043 -0.004206800100241014 0.001997885898759712)
(-0.9955318169792919 -0.002386082477670161 0.00110943265709809)
(-0.997478414264661 -0.001042551029541981 4.519368589178723e-05)
(-0.9937953007277606 -0.004028029088406055 0.002456143664171386)
(-0.9957157348268145 -0.002310532506864266 0.001380232964800372)
(-0.9976408733614945 -0.0009897698261313529 0.000578874375644376)
(-0.9932064989733045 -0.003803198350470115 0.002636583861204212)
(-0.9946461562992499 -0.001452949647497596 0.001649118251481972)
(-0.9972718186143357 -0.0005871050388633385 0.0006501886816634606)
(-0.9927938430792653 -0.003976084331140196 0.002147150057289239)
(-0.9944065469236382 -0.001503530606201129 0.001328500968135421)
(-0.9970784081677332 -0.0006199293599570108 5.088835395555773e-05)
(-0.9850003830440465 -0.0166629280407408 0.009593904654578494)
(-0.9927316809675563 -0.004896528979928163 0.002341579435384967)
(-0.993219801869362 -0.0330629128542928 0.0166501511216278)
(-0.9990931981854245 -6.08836843074969e-05 0.0001986228782565832)
(-0.998854985365889 -0.0001292809799998785 0.0002097022138517031)
(-0.9972737311593384 -0.000435545685124761 4.587707067521553e-05)
(-0.9984549691395702 -0.0002101892052140676 1.686617871849138e-05)
(-0.9974448150166112 -0.0004135114821060331 0.0005877801520556995)
(-0.9985339132810936 -0.000211463181713357 0.0003179392644651945)
(-0.9944559078708197 -0.0011613113158677 0.001696420961483441)
(-0.9972091932759245 -0.0004648794916907777 0.000662219440623934)
(-0.9906880580339076 -0.002257361444264939 0.002639341063963467)
(-0.994206093464186 -0.001202124297362587 0.001367085879090403)
(-0.9970104969910387 -0.0004910796013281553 5.185201574616263e-05)
(-0.986077225470651 -0.01586090113012278 0.01031833017565727)
(-0.9931796470715684 -0.004671242136046114 0.002867149300576249)
(-0.9553688461429816 -0.03042713411033278 0.04908899535226975)
(-0.9845989944698587 -0.0159080344304573 0.01110125207621381)
(-0.9924761693054068 -0.004432199426684832 0.003094582836558069)
(-0.9504584305000313 -0.02884006206080364 0.05279181956328555)
(-0.9728173299327342 -0.01120520584734206 0.01715584527200162)
(-0.9466578660995514 -0.03468353871266259 0.05520891038858654)
(-0.944575158218338 -0.03305068204432005 0.05695060726359898)
(-0.9521904904308004 -0.03269406391477923 0.05526013726081449)
(-0.9478814504790972 -0.03260935179482466 0.0501616170957769)
(-0.9833952403906838 -0.01673090640204685 0.01033642986628809)
(-0.9919750850583146 -0.004651720846668473 0.002530762460812722)
(-0.9460542997995192 -0.03114060832081553 0.05264021595561835)
(-0.970555097656611 -0.01184619139305622 0.01610265065402815)
(-0.9894095569651362 -0.002681427874135451 0.003164783183419366)
(-0.9990436928436683 -6.359285848493619e-05 4.710869453861963e-05)
(-0.9992576136901787 -4.432596793271467e-05 3.201527471158135e-05)
(-0.9994160875365887 -3.215996436404401e-05 2.318614045507926e-05)
(-0.99953165453754 -2.366104623409629e-05 1.703330054952366e-05)
(-0.9996169122824035 -1.75481648337136e-05 1.261631283080127e-05)
(-0.9996801178610317 -1.302091803541299e-05 9.350982047749839e-06)
(-0.9997267868058511 -9.562378555650173e-06 6.860871003031961e-06)
(-0.9997606412435164 -6.827196825995854e-06 4.894831718034437e-06)
(-0.9997841862761918 -4.575342535438289e-06 3.278565979622614e-06)
(-0.9997990639410649 -2.631481210116113e-06 1.884976452336318e-06)
(-0.9998068591369409 -8.588479289724383e-07 6.150993572034551e-07)
(-0.9992916870776656 -4.278069480001531e-05 0.0001388250414165135)
(-0.9994393631035908 -3.118320994105964e-05 0.0001010640615057691)
(-0.999548075519742 -2.302222395628609e-05 7.453282846324265e-05)
(-0.9996288473129332 -1.712224007773724e-05 5.537161761912968e-05)
(-0.9996890593510142 -1.273360455881395e-05 4.113681945152639e-05)
(-0.9997337097536848 -9.368072559400449e-06 3.023696313818182e-05)
(-0.9997662066102493 -6.697579891715806e-06 2.160165143744811e-05)
(-0.9997888623013363 -4.492891576386887e-06 1.448288893217843e-05)
(-0.9998032018267105 -2.585707602989491e-06 8.332001830560891e-06)
(-0.9998107226355514 -8.44173182127641e-07 2.719706896416323e-06)
(-0.9987924325234653 -0.0001331196711564977 2.390256024904708e-05)
(-0.9977656653511051 -0.0009042374797729746 0.0004105707939163786)
(-0.9982321913917088 -0.0006580845774259745 0.0002968085954131829)
(-0.9981728624613448 -0.0006733923010753142 2.889096405923756e-05)
(-0.9985907149478545 -0.0003859599696177483 0.0002103587274856629)
(-0.9983593995768852 -0.0005950951712945976 0.0002665317530819044)
(-0.9986014529888125 -0.0004739436631239214 4.337280949414625e-05)
(-0.9983062900059766 -0.0006058391778624359 2.58767215351214e-05)
(-0.9974339819920224 -0.0005335299959368858 0.0004586323950153135)
(-0.9980065901750181 -0.0003815724796642483 0.0003261018518714833)
(-0.997940596035473 -0.0003924202710965439 3.194647127065594e-05)
(-0.9975785987090429 -0.0008495699269335478 4.167096939364361e-05)
(-0.9976693440600919 -0.0008245609481769347 0.0004245617249901058)
(-0.9981678258250367 -0.0005961009644103995 0.0003047332483962868)
(-0.9981043031122933 -0.0006112946592569329 2.974093002548578e-05)
(-0.9985278260792358 -0.0002978327030084237 0.0002304169552639235)
(-0.9981590281275601 -0.0003433754905903395 0.0002927333616785306)
(-0.9981027961692265 -0.000352985621209831 2.870403401618265e-05)
(-0.9975379029152329 -0.001348698121291721 0.001096965740510842)
(-0.9983097045545876 -0.0005363701866765661 0.0002727141793534347)
(-0.9984631669585492 -0.0005344865225704684 1.311618986442079e-05)
(-0.9982458436778479 -0.0005499189414101006 2.664051123089682e-05)
(-0.9982703893601755 -0.0006483019401370115 0.000376059295430176)
(-0.99868723303431 -0.0004826598060303765 0.000294725875215903)
(-0.9983983025403999 -0.0005878601185544214 0.0003394314568443879)
(-0.9980499571170336 -0.0003743201940901245 0.0004116822526126812)
(-0.9977274944432946 -0.000808474419953926 0.0005351114058034703)
(-0.9982072158576604 -0.0005867359995220427 0.0003860158512112291)
(-0.9981971373054643 -0.0003359431664270356 0.0003691105656190335)
(-0.9985219423959812 -0.0003168077624889679 0.0002476017627984387)
(-0.9983425401158607 -0.0005278594484564197 0.0003473919873166144)
(-0.9928154553649863 -0.004497160904924536 0.0002037802557608705)
(-0.9950902161165764 -0.002733718870649593 0.001276801425960393)
(-0.9947402630385576 -0.00288185660993915 0.000128360566233702)
(-0.9952376674833553 -0.002506097137133185 0.0001111021742030941)
(-0.9965977052159287 -0.001620280620571161 0.0007450619524382472)
(-0.9964178848815685 -0.00168643483845609 7.390996494527032e-05)
(-0.9975774713641877 -0.001010429124373392 0.0004597498453678934)
(-0.996882489936335 -0.00143348182305384 0.0006571726376961842)
(-0.9967285076910829 -0.001488322013780864 6.50235514251357e-05)
(-0.9953079077445622 -0.002640876212416774 0.001584498679495842)
(-0.9967115359872895 -0.001578188702394603 0.0009326047741255694)
(-0.9969802886408787 -0.001398486277567431 0.00082396797925712)
(-0.9916428853068465 -0.002668894643058467 0.003108849724196421)
(-0.9940425228105941 -0.001679807997823511 0.001916865794439104)
(-0.9949542683177027 -0.002463006344180868 0.00167811500173359)
(-0.9960491364232951 -0.0009640146967216781 0.001080164351756756)
(-0.9954150153622366 -0.0021475428510834 0.001456382430366866)
(-0.9965224291830332 -0.001454167397122538 0.0009749785927690851)
(-0.9964111548823069 -0.0008472813590615782 0.000946118004704605)
(-0.9975339506631673 -0.0009040319422973812 0.0005996394856385354)
(-0.9968171098245435 -0.001285433977910289 0.0008591835949672572)
(-0.9912458251724049 -0.002151622150092729 0.003228751351439739)
(-0.9906048711113158 -0.0003245622648956945 0.003420451108301741)
(-0.9938153577916659 -0.001345113004587986 0.001975842415012756)
(-0.9934559352676899 -0.0002008041419584099 0.002068708573767215)
(-0.9911183383512816 -0.002797775365616898 0.002539034177359452)
(-0.9921149172830346 -0.004257432944554553 0.0002195126148241009)
(-0.9902458871799146 -0.003008094626524643 0.0002608746016796803)
(-0.9937536701031069 -0.001742922100844927 0.001548554853234582)
(-0.9932872451732795 -0.001843883958925458 0.0001562940871052797)
(-0.9947170922453265 -0.002551370952542907 0.001353262177783062)
(-0.9943352977777821 -0.002692530964960243 0.0001362100298105153)
(-0.9959075078912001 -0.0009911287149523009 0.0008642484243632332)
(-0.9940218876198809 -0.001584090018854277 0.0001334950811892311)
(-0.9956832098806458 -0.001033839296846054 8.593200650632928e-05)
(-0.9952157406485531 -0.002219123424128365 0.001171415963302176)
(-0.9948966628413849 -0.00233294888193694 0.0001174303470199293)
(-0.9964007934167453 -0.001493585276891681 0.0007792653023718974)
(-0.9962084952119338 -0.001555580772646819 7.735655606163835e-05)
(-0.9971963786771558 -0.0005999275804286364 0.0005168825517329215)
(-0.9962910229789051 -0.0008695789283554256 0.0007556024543634893)
(-0.9961014551154321 -0.0009045957457341651 7.491613986563879e-05)
(-0.9973625801591561 -0.0009528858172558468 4.684756560489047e-05)
(-0.9974670883181378 -0.0009231413750453712 0.0004763671764634084)
(-0.9967130080784919 -0.001318096908464038 0.0006855322771010163)
(-0.996548988968764 -0.00136931474471314 6.787114250039439e-05)
(-0.9918054902534299 -0.03063618816579179 0.01535125281242922)
(-0.9697123917452011 -0.05053885104690946 0.001419861440270602)
(-0.9843884962420314 -0.01831815189113281 0.01063905978491438)
(-0.9791457636018142 -0.02224649144912035 0.0005813957681747336)
(-0.9803939846693779 -0.01998947736293144 0.0005173517230104823)
(-0.989181058309979 -0.008941664729783121 0.004916184067469989)
(-0.9872363988452538 -0.01001437074471202 0.0002388211237376781)
(-0.9919923688923287 -0.005265843282355899 0.0002400954921620549)
(-0.9900661284488637 -0.007913538902667289 0.004006412044627216)
(-0.9879658830136051 -0.009146135326766764 0.0002214549032778469)
(-0.9795987656357401 -0.04187839131042034 0.02862804507315906)
(-0.9647803326105096 -0.0442267447568221 0.04049344285278117)
(-0.9444859105591974 -0.0563809731068764 0.03078137506734598)
(-0.9690135545309656 -0.05296113106957902 0.02204544333156294)
(-0.9688745643080316 -0.05746726369573252 0.001626222585009258)
(-0.9729015297982141 -0.05289114036776464 0.01571154363096275)
(-0.9863150520021804 -0.04486396386549936 0.001010234466217657)
(-0.9881227558875892 -0.04186217216246699 0.009891560107717927)
(-0.9837430132779885 -0.04003898021638925 0.02515045781045007)
(-0.9753017910996913 -0.05012379879224313 0.01910133170631313)
(-0.9892158260576338 -0.04002179532674847 0.01214952908350997)
(-0.9830713553133106 -0.03804382254023796 0.02928460102821451)
(-0.9919050274619164 -0.02752160156138304 0.02800165149266305)
(-0.9707513215408106 -0.03983431207534069 0.04086832189219635)
(-0.9853412168160544 -0.02810113396421934 0.03747572216446489)
(-0.9406251710517318 -0.05838378156535975 0.0284904537071786)
(-0.9607948313930155 -0.06115164918622159 0.00189324413298914)
(-0.9659528608639562 -0.05604371415098912 0.01820314530477619)
(-0.9301669939903989 -0.06453155250771023 0.001153124706946311)
(-0.9973779745685548 -0.0004221261101022908 0.0004667564223008814)
(-0.9979697147294698 -0.0003014276127079598 0.000331506648493509)
(-0.9979023994416386 -0.0003099371639364097 3.245135207442217e-05)
(-0.9984894472963789 -0.0002136935833872492 0.0002311453002700288)
(-0.9981274543692759 -0.0002713668419081965 0.0002979116828144718)
(-0.9980696264947612 -0.0002786338265564146 2.912467017068489e-05)
(-0.998013376138093 -0.0002956753657994187 0.0004185362416322397)
(-0.9981650220420751 -0.0002658276996788533 0.0003761994451522612)
(-0.9959340747568629 -0.000766926739938884 0.001105565597291132)
(-0.9963129551031107 -0.0006731721379438133 0.0009670162029466724)
(-0.9899970930670184 -0.0003404712076386705 0.002795984289490001)
(-0.989763743846412 -0.002426380514551922 0.0002711853820681061)
(-0.9935132946688805 -0.001396159621912885 0.001596839969352588)
(-0.9930253632963478 -0.001477687699942276 0.000161250126016827)
(-0.9957874948495865 -0.0007886758345229768 0.0008847862361183115)
(-0.9938048865068994 -0.001267094383402593 0.0001374402936997614)
(-0.995555268763335 -0.0008229449103106482 8.800651147614327e-05)
(-0.9971317002084621 -0.000475113078411381 0.0005265362238273063)
(-0.9961888775016445 -0.0006910279651086936 0.0007724589007682665)
(-0.9959930180220292 -0.0007190779737206075 7.661268619477695e-05)
(-0.9931601936108055 -0.02843761503692768 0.01610475428999398)
(-0.9855959075903482 -0.01738230439710679 0.01140385199375202)
(-0.9898700034084735 -0.008648843972529848 0.005359041108634198)
(-0.9911523283932294 -0.007582081198084695 0.004796740929568089)
(-0.9822576314138559 -0.03452993520235628 0.02626682025146478)
(-0.9839581770269659 -0.0174868404254879 0.01231702389493648)
(-0.9721641913588985 -0.01370545808395956 0.0186977672589633)
(-0.9888715697482354 -0.008504798999501396 0.005656435988989347)
(-0.9740915965252198 -0.01230179572354384 0.01651112468729522)
(-0.9841969184133226 -0.006025264367306013 0.007453886536432992)
(-0.9905834434362055 -0.003143715349909064 0.003694711899557728)
(-0.9895822181018222 -0.00724654632990488 0.005241221144721867)
(-0.9852613371408508 -0.005470656897290358 0.006716833620032486)
(-0.9707257877238229 -0.01249401831149088 0.01946225268621292)
(-0.9652499443478283 -0.0009294690578557903 0.02236250489182917)
(-0.9836307391852114 -0.005451522043960223 0.007664444427532491)
(-0.9679611075318507 -0.0008321159675797403 0.01960278294352381)
(-0.9815141428279435 -0.0003973149854331852 0.008468168125064244)
(-0.9901095754568285 -0.002541713369534735 0.003849733541553378)
(-0.9893167143112658 -0.0003855018523204801 0.004101520845766848)
(-0.9847260443741467 -0.004941821672671016 0.006896411856861523)
(-0.982840827381843 -0.000359897729603029 0.007595727751035092)
(-0.9589153454242422 -0.04403221046953662 0.04526854684835614)
(-0.9388559932758235 -0.05616536718151831 0.03266077273519937)
(-0.9125781785627204 -0.04645867894087096 0.04358637539222886)
(-0.9340155834642085 -0.01944474679643293 0.0656100571266586)
(-0.8924521480398782 -0.02560658348581952 0.05202201415039071)
(-0.9093164280527326 -0.04426612594882919 0.04493507053462407)
(-0.9763243111273808 -0.02355607383814916 0.04996139789047011)
(-0.9665855238301115 -0.0395505778724228 0.04536444340222184)
(-0.9830125050391615 -0.02755501395041476 0.04073565714279156)
(-0.9791282118339486 -0.03772381831008881 0.02547925466648698)
(-0.9456202563556678 -0.05271915997911016 0.0231213411413348)
(-0.9825995142295605 -0.01845100629793766 0.01150933235761659)
(-0.9766674832996655 -0.02251477270592964 0.0006329170740508508)
(-0.96966687432071 -0.01453732297190576 0.01761660202251434)
(-0.9380867482043681 -0.05297533227592795 0.02699895164508174)
(-0.958488312544964 -0.01808745353490856 0.001000271726808044)
(-0.9782210227082643 -0.02015610004091979 0.0005604792179869465)
(-0.9884613245480336 -0.008754801645370115 0.005125433131217932)
(-0.9863072543281975 -0.009912361815540446 0.0002558503837515347)
(-0.9719454751945403 -0.0130015691854507 0.01548762404367203)
(-0.9833781252027203 -0.006252076474531908 0.006839673724150125)
(-0.9625135314398355 -0.01594963887313721 0.0008640576803044662)
(-0.9801023239628854 -0.007157735675075642 0.0003512679896755823)
(-0.9899433391212669 -0.003310998087310567 0.003031999261433689)
(-0.9911399342088871 -0.005012068403682926 0.000260480613191264)
(-0.9888438860457383 -0.003588267620299919 0.0003143025837076321)
(-0.9882312317172158 -0.007829132925413157 0.00454176296086441)
(-0.9871194980373662 -0.009048315185464072 0.0002341804376838484)
(-0.9845108052962503 -0.005665955596884653 0.006143803642744762)
(-0.9816518763729067 -0.006450367735871596 0.0003134001507553019)
(-0.8926121604121442 -0.02183426893249058 0.04364465124441855)
(-0.9680878422607997 -0.01325612173885831 0.01834957650772104)
(-0.9620814267308361 -0.0009868076927778877 0.02112901334562843)
(-0.8941364148871448 -0.02465265934547105 0.04309516805847251)
(-0.9562620879588294 -0.0165077098422435 0.001044458061525413)
(-0.9478535897642555 -0.001225589531741123 0.001209389453808655)
(-0.9827826129694753 -0.005659940577654136 0.007038016161605798)
(-0.9652589901050881 -0.000880371638611076 0.01843653900400127)
(-0.9805460113414648 -0.0004129152495091767 0.00778653130400806)
(-0.9605984065990122 -0.01454681893775633 0.0009004980032109287)
(-0.9793761963818912 -0.006486198673671854 0.0003618755819551045)
(-0.9533334166357503 -0.001081144345866379 0.00103742974762136)
(-0.976612356335859 -0.0004734641310746152 0.0004013054192567193)
(-0.9885510959804804 -0.0004063091197467534 0.003369307211705072)
(-0.988240662562092 -0.002903076680982364 0.0003279266549971134)
(-0.9839748001934931 -0.005126362739137275 0.006319670343221803)
(-0.9819951470122277 -0.0003733319795079647 0.00696871862735605)
(-0.9810136453715593 -0.005839765426833791 0.0003224428621190363)
(-0.9363766672474623 -0.05762879305383375 0.02975992499203458)
(-0.9245315552835323 -0.06408307008873117 0.001493140736699761)
(-0.9081362735405141 -0.04787782321013885 0.03993876197728755)
(-0.890237854207795 -0.05337898214736529 0.00203625599864892)
(-0.8870399221391012 -0.0263286016174011 0.0476949480139196)
(-0.86527042904756 -0.02909026019173352 0.00243645880286343)
(-0.9047085063271544 -0.045606396973131 0.04118135354464285)
(-0.8861406673258653 -0.05079374817565924 0.002100884447264988)
(-0.9330136149394127 -0.01724507556637536 0.0664399121415805)
(-0.8909051950141742 -0.02266606861759705 0.05268549350809278)
(-0.885424658967801 -0.02329964249915596 0.04830313107355789)
(-0.8633863806153089 -0.02571915386373255 0.002467454388538864)
(-0.994609381912026 -0.03053538826381215 0.01738344046269996)
(-0.9493746889753201 -0.03125602740961346 0.05697482119479046)
(-0.9988139553220409 -0.0004019619090214556 0.0001469989137846193)
(-0.9987947086232793 -0.0004086531701420275 3.334234303286975e-05)
(-0.9989527176062364 -0.0003352595579699016 0.0001296529157887729)
(-0.9989396132655164 -0.0003372348852452494 2.104906345904224e-05)
(-0.9988486540752274 -0.0001938089137371787 0.0001400080417987999)
(-0.9986800587352591 -0.0002509993034161149 3.7430538022551e-05)
(-0.9987105366125543 -0.0002516119147993066 0.000166787054892157)
(-0.9988955221852583 -0.0003674225441382125 0.0001901240013929161)
(-0.9987697701123263 -0.0003459167644778596 3.840429836895e-05)
(-0.9988828191718836 -0.0002785370901903414 0.0001324622309880415)
(-0.9988659526974191 -0.0002829342516557484 2.339452001583908e-05)
(-0.9988561444769722 -0.0003956358612811108 0.0002393137383914524)
(-0.9989937853775258 -0.0003273255655295723 0.000189974173163559)
(-0.9988846484013598 -0.0002740141876807497 0.0003025651841386847)
(-0.9987853603261492 -0.0003162228030157291 0.0002457870815188312)
(-0.9989219465944427 -0.000272694347140711 0.0001991790525158457)
(-0.9979672279383068 -0.0008960425135822058 0.0001556344266791743)
(-0.9976941216892438 -0.0009266965252790585 0.0001803646629052822)
(-0.9977870735519403 -0.001003009270587641 3.879128920487043e-05)
(-0.9978607878046252 -0.0008340761866448396 3.599573715153686e-05)
(-0.9978736107111877 -0.0008302092923255553 0.0001612370747695574)
(-0.9978009118921948 -0.0009981331634306269 0.0001737103637705763)
(-0.9979550948212266 -0.0009001554172299383 3.474110119705932e-05)
(-0.9976345769337382 -0.0005840204140301856 0.0001755933726682498)
(-0.9973495951550307 -0.0005474910463804536 0.0002017430280307289)
(-0.9975583113895702 -0.0004901299860330409 4.004804148345195e-05)
(-0.997403530533262 -0.0006583152835550444 4.408453595845294e-05)
(-0.9974202692316647 -0.0006549339971848246 0.0001973524134090405)
(-0.9975732289903971 -0.0004877070961702824 0.0001793209883924066)
(-0.9976200814089876 -0.0005868901457234755 3.921357760571539e-05)
(-0.9984124271549828 -0.0003474609891485969 0.0001051591488311971)
(-0.9984953911169131 -0.0002632611179178327 9.93509761049219e-05)
(-0.998384329626967 -0.0002902734849859943 2.345324484530184e-05)
(-0.9985026618595532 -0.0003267599406236582 1.837778970507414e-05)
(-0.998505807032056 -0.0003314881531389149 0.0001018821365849203)
(-0.998392461042825 -0.0002902410199358638 0.0001052959673101298)
(-0.9984080238166395 -0.000347824114090678 2.359993930412268e-05)
(-0.9981270508478151 -0.000840842176674964 0.0005352390139006122)
(-0.9978876188574561 -0.0008656114856801907 0.0006173326353535354)
(-0.9979206295389335 -0.0009556440019600672 0.0004987496941230222)
(-0.9979844779391225 -0.0007966347304926127 0.000464069867941307)
(-0.9980718803225617 -0.0008601115118950607 0.0004481229231959893)
(-0.9980428009175717 -0.0007787035180939491 0.0005542964578538287)
(-0.9979837173112099 -0.0009330423162869444 0.0005949934239371093)
(-0.9978272243046472 -0.0005461625778616789 0.0006019683186630801)
(-0.9977028855873227 -0.0004666761744933065 0.0005147268433424799)
(-0.9975778791829129 -0.0005097045213713112 0.000688268175086435)
(-0.9975652438809814 -0.0006256467238494257 0.0005653513432405207)
(-0.997760619510117 -0.0005592078988287326 0.0005042935358746502)
(-0.9976415106928914 -0.0006102113250441712 0.0006737892930324939)
(-0.9977713977366497 -0.0004556135879951547 0.0006142113125755486)
(-0.997820375314412 -0.0001627652956226898 0.0002045681562598825)
(-0.9985439710056725 -0.0008191815073711578 0.0003855463457746035)
(-0.9984540190405312 -0.0002760999909549076 0.0003041112318655051)
(-0.9985555121991209 -0.0003363702522681964 0.0008030340422621003)
(-0.9974479488129124 -0.001302071381178807 0.001336544691446743)
(-0.998415492856853 -0.0003204524119558899 0.0002302863242492411)
(-0.9984030611197232 -0.0001981923491307087 0.0003508896966143785)
(-0.9943595189855109 -0.003893190976800618 0.001171921010523012)
(-0.9931276058973445 -0.004348403513948464 0.001476699054368607)
(-0.9940610682379636 -0.004358221008311407 0.001845556201519303)
(-0.9940430468478761 -0.003629303821232665 0.001713025336407023)
(-0.9945793104875758 -0.003778929803736196 0.001591240924061079)
(-0.9937975480424147 -0.00374189422956833 0.001262698215016641)
(-0.9937979896738367 -0.004500986128438554 0.001362723804834346)
(-0.9960946348113032 -0.002261658397035664 0.0006685714426269758)
(-0.9953875877259021 -0.002445050069391813 0.0008124967831024067)
(-0.9959268262082436 -0.002090146409320636 0.0009678905344118543)
(-0.995859313109882 -0.002516036428005979 0.001044783913060717)
(-0.9957274733409872 -0.002576889932958324 0.0007647270429245681)
(-0.996206798300726 -0.002211754434096206 0.0009149279553295616)
(-0.9958048170065122 -0.002138275695985438 0.0007076164066157541)
(-0.9974149576053833 -0.001248200192378604 0.0002181693230782081)
(-0.9974952651695211 -0.001037098849585923 0.0002022969583458362)
(-0.9972550022823207 -0.001170380680321696 5.085580383429286e-05)
(-0.9976016758127991 -0.001120484288510236 4.342585266695047e-05)
(-0.9976175472906147 -0.001114706096352341 0.0001943991582157422)
(-0.9972744656685411 -0.001163883702722381 0.0002275638018469946)
(-0.9973966816921153 -0.001255063524836842 4.875200976490378e-05)
(-0.9951797781830183 -0.003463351472291666 0.00228640050806234)
(-0.9942247382991489 -0.003819268364734223 0.002841864045765635)
(-0.9943912185081807 -0.004177729999229156 0.002271769503295524)
(-0.9943523145519767 -0.003486522601171477 0.002113354259099074)
(-0.9948565787661776 -0.003633856391426906 0.001965260004520162)
(-0.9947122480960252 -0.003318942800874746 0.002455473042896677)
(-0.9947737614233197 -0.003966649587662316 0.002632504317035576)
(-0.9965208272705049 -0.002071032612337172 0.001344487663447538)
(-0.9960829015874598 -0.002028315182229784 0.00120684816977358)
(-0.9959329841874219 -0.002220750097343659 0.001619957303587426)
(-0.9960275763924237 -0.002438008498098596 0.00130074194819743)
(-0.9963503866059841 -0.002147598720555895 0.001141532376465223)
(-0.9962265448531956 -0.002345189971375534 0.001527997570483661)
(-0.9962679914503191 -0.001954587563121153 0.001420321125495717)
(-0.9976552827562306 -0.00115737024452155 0.0007410025757987202)
(-0.99771732483194 -0.0009647464776399308 0.0006894106705081067)
(-0.9974423035539755 -0.001107614885211323 0.0006492446209953002)
(-0.9977547657509055 -0.001064500079241805 0.0005566347871618632)
(-0.9978268961251042 -0.00103793236347972 0.0006631476129649307)
(-0.9975726563571414 -0.001188721063190196 0.0006229183790261824)
(-0.9975301539257391 -0.001077978660848512 0.0007720027995289331)
(-0.9938168996328216 -0.002854295360326661 0.002775324941151216)
(-0.9936831290233431 -0.003601579018922982 0.003046448585889047)
(-0.9926403303572016 -0.003500799182819044 0.002808695216707411)
(-0.9938575019251707 -0.003277229056127403 0.002257427447822807)
(-0.9942541312144039 -0.003116295639139119 0.002619722506441072)
(-0.993384638862741 -0.003004632641910651 0.00239408780405863)
(-0.9931631317677696 -0.00331151028941803 0.003241286970362041)
(-0.9955922773853234 -0.001437617927720145 0.001620772602567181)
(-0.9949282783268656 -0.001393011647445172 0.001930338905499193)
(-0.9951749521539873 -0.001262148006924983 0.001425718645883481)
(-0.9948735678617185 -0.001716823432722655 0.001592380700309726)
(-0.9951416345238243 -0.001646814352015653 0.001864926613761537)
(-0.9953668708179156 -0.001494484194569071 0.001379782682157332)
(-0.9954114162283545 -0.001213592712400763 0.001673944163924634)
(-0.9972068960465038 -0.0007676508319676064 0.0008513969265985904)
(-0.9973626750844575 -0.0005716246540616192 0.0007734636435955135)
(-0.9970174431128102 -0.0006613395700719897 0.0007341986013765069)
(-0.9973477946678213 -0.0007018182828898754 0.0006355756513198113)
(-0.9974356636259807 -0.0006834795309219406 0.0007562675015624275)
(-0.9971051973165687 -0.0007895263567711739 0.0007167435077342147)
(-0.9971228068167652 -0.0006428537022939128 0.000871902301736229)
(-0.9927161159561706 -0.003234391421449339 0.001435329689230205)
(-0.9921867935531918 -0.003663145743304036 0.002289565624858913)