/*--------------------------------*- C++ -*----------------------------------*\
  =========                 |
  \\      /  F ield         | OpenFOAM: The Open Source CFD Toolbox
   \\    /   O peration     | Website:  https://openfoam.org
    \\  /    A nd           | Version:  7
     \\/     M anipulation  |
\*---------------------------------------------------------------------------*/
FoamFile
{
    version     2.0;
    format      ascii;
    class       volScalarField;
    location    "0";
    object      mag(grad(Phi));
}
// * * * * * * * * * * * * * * * * * * * * * * * * * * * * * * * * * * * * * //

dimensions      [0 1 -1 0 0 0 0];

internalField   nonuniform List<scalar> 
12670
(
0.9991680883566364
0.999341525503381
0.9994741728790323
0.9995729746494011
0.9996471452667354
0.9997028988404141
0.9997445134431511
0.9997749522500988
0.9997962513706278
0.9998097664181909
0.9998168656993799
0.9990870073867227
0.9992870223965268
0.9994362471690137
0.9995459106051022
0.9996272940387125
0.9996879098256422
0.9997328300196889
0.9997655068272404
0.9997882795573596
0.9998026895105447
0.9998102461015167
0.9992105843407076
0.999371395738944
0.9994949860946143
0.9995878613246935
0.999658092234576
0.9997111860040045
0.9997509890030881
0.9997801990102491
0.9998006877205341
0.9998137100146205
0.999820557295126
0.9991335513644606
0.9993194869750605
0.9994586458027792
0.999561798604404
0.9996388886468855
0.9996966267123246
0.9997395998261948
0.9997709634136954
0.9997928739367605
0.9998067613271298
0.9998140512069837
0.9988342489798607
0.9988975485349347
0.997679901084654
0.9973324749940592
0.9984884706434946
0.9978214374078631
0.9974994855750811
0.9985722731380108
0.993434919721814
0.9955352946272178
0.9974789601184885
0.9938064989768463
0.995719372205445
0.9976415322856887
0.993217280102878
0.9946485846240155
0.997272203382804
0.9928041268830795
0.9944085710027342
0.9970786021855732
0.9851880281318538
0.9927465181943341
0.9939094317714257
0.9990932197839453
0.9988550157449683
0.9972738273238788
0.9984549914059572
0.997445073916742
0.9985339862891537
0.9944580328939111
0.9972095215156891
0.9906941456034436
0.9942077601326319
0.9970106192805192
0.9862587544423475
0.9931947706293114
0.9571129359356896
0.9847900706587963
0.9924908903732189
0.9523602015524675
0.9730331120175367
0.9489004621624356
0.9468674399167424
0.9543528250349531
0.949767762043174
0.9835918685280322
0.9919892200230397
0.948029254818438
0.9707609516229215
0.9894182519652593
0.9990436959783064
0.999257615186174
0.9994160883229781
0.9995316549627284
0.9996169125160477
0.9996801179895655
0.9997267868751254
0.9997606412788098
0.9997841862920366
0.9997990639463048
0.999806859137499
0.9992916976364344
0.9994393686998969
0.9995480785637003
0.9996288489931504
0.9996890602784939
0.9997337102548356
0.9997662068660536
0.9997888624163307
0.999803201864772
0.9998107226396069
0.9987924416806128
0.9977661595621141
0.9982324524384821
0.9981730900230449
0.9985908116921363
0.998359612514928
0.9986015663993142
0.9983064741732427
0.9974342301276773
0.998006716396609
0.997940673702541
0.9975789613398169
0.997669775141409
0.9981680503357104
0.9981044907508231
0.9985278970819077
0.9981591301150853
0.9981028589998121
0.9975394178041181
0.9983098858940889
0.9984633101024659
0.9982459955044434
0.9982706707047522
0.9986873931564151
0.9983985333066073
0.9980501122184183
0.9977279655012176
0.9982074629342701
0.9981972620806194
0.9985220233525322
0.9983427401057109
0.9928256616315789
0.9950947902846642
0.9947444458171022
0.9952408289676743
0.9965993008567975
0.9964193147651274
0.997578089028775
0.9968837371969109
0.9967296209978772
0.9953126725216015
0.9967132217450448
0.9969816099735989
0.9916513499839099
0.9940457903361565
0.9949587320657203
0.9960501886195063
0.9954183973579565
0.996523967123184
0.9964119642993419
0.9975345405382872
0.996818308908859
0.9912534187758891
0.9906108294864915
0.9938182322058803
0.9934581094319312
0.9911255394034379
0.9921240764221922
0.9902504904142063
0.9937564050827434
0.9932889689107688
0.9947212847915021
0.9943389526127396
0.9959083760745913
0.9940231587993892
0.9956837503174528
0.9952189041405809
0.9948994050522376
0.9964022175672385
0.9962097127352264
0.9971966930989631
0.996291689000232
0.9961018686805946
0.9973630364555347
0.9974676292459564
0.9967141153845666
0.9965499320375411
0.9923972830903395
0.9710295125153765
0.9846164003384574
0.9793986271086021
0.9805978849834159
0.9892336874334473
0.9872872185245218
0.9920063743202124
0.9901058600660624
0.9880082422897808
0.980911365138831
0.9666420299458854
0.9466678099652228
0.9707101276079233
0.9705787203311481
0.9744648336478723
0.987335392677415
0.9890585751725774
0.9848786634088995
0.9767757366973167
0.9900996443192038
0.9842429628543981
0.9926817790929001
0.9724274371005942
0.9864539609319666
0.9428658888295898
0.9627407837019656
0.9677485116527361
0.9324035004625304
0.9973781731151347
0.9979698153113065
0.9979024481007728
0.9984894969178822
0.9981275357172672
0.9980696658131875
0.9980135076976976
0.998165128332304
0.9959349836780125
0.9963136518121977
0.9900010998629936
0.9897667550977748
0.9935155589337247
0.9930264758365637
0.995788200248964
0.9938057037786622
0.9955556127840913
0.9971319524182597
0.9961894166625083
0.9959932805452385
0.9936977564796966
0.9858151375411575
0.9899222926429915
0.9911929351837411
0.9832152952135967
0.9841906282849501
0.9724405694140196
0.9889243188082992
0.9743091859556261
0.9842435869486142
0.9905953221432817
0.9896226297008985
0.9852994196716776
0.9710012537196985
0.9655093995406011
0.9836757056423747
0.968159938858452
0.9815507527896175
0.9901203220651998
0.9893252914489578
0.9847625929972654
0.982870244017525
0.9609925684326019
0.9411014029615662
0.9147989467405477
0.936519026997384
0.894333731676868
0.9115015177151653
0.9778855712158723
0.9684574104281339
0.9842419710721699
0.9801858671167413
0.9473708753572889
0.9828401241956358
0.9769271664299876
0.9699358358061139
0.9399691890569201
0.9586594816743835
0.9784288179393613
0.9885133821774419
0.9863570957399803
0.9721558074974109
0.9834217847516462
0.9626460594531313
0.980128523208382
0.9899535193121034
0.9911526410515336
0.9888504464380173
0.9882726801214744
0.9871609951034911
0.9845462788112593
0.9816731186347272
0.8939452219222935
0.9683524678828155
0.9623139200150975
0.8955137495036177
0.9564051318579685
0.9478551536609044
0.9828241108936753
0.9654354452801921
0.9805770142759862
0.9607089671687378
0.9793977413526294
0.953334594152531
0.9766125535555038
0.9885569213163179
0.9882449810301438
0.9840084477503255
0.9820199443858769
0.9810310796477527
0.9386202607497016
0.9267510270057669
0.9102740697084978
0.8918390545037148
0.8887113292839925
0.8657627243960492
0.9067928808417888
0.8875977134140911
0.935535173159717
0.8927494488354573
0.8870472887734591
0.8637728899650816
0.9952298310069712
0.9515962219169403
0.9988140470218252
0.998794792779271
0.9989527822783892
0.9989396704113268
0.9988486826902462
0.9986800909786657
0.9987105822346198
0.9988956078531038
0.9987698307535762
0.9988828667896568
0.9988659930427189
0.9988562514987841
0.9989938570657632
0.9988847318091182
0.9987854406277588
0.998922003673226
0.9979676423377311
0.9976945683680618
0.997787578435263
0.9978611370410441
0.99787396909562
0.9978014262457224
0.9979555013959103
0.9976347633310677
0.9973497658307235
0.9975584326011482
0.9974037487610895
0.9974205037799665
0.9975733643259306
0.997620254810528
0.998412493153551
0.9984954307650836
0.9983843720999638
0.9985027154947628
0.9985058672542205
0.9983925087831134
0.9984080846828209
0.9981275485280049
0.9978881852451358
0.9979212117527602
0.9979849037912142
0.9980723515339862
0.998043258625158
0.9979843308406398
0.9978275553535966
0.9977031275082009
0.997578246829219
0.9975656002766367
0.9977609036591166
0.9976419248445141
0.9977716908093883
0.9978204095593887
0.9985443814553783
0.9984541035285677
0.9985558917516176
0.997449694136341
0.9984155708411865
0.998403142451495
0.9943678310021565
0.9931382234354936
0.9940723351720696
0.9940511482256026
0.9945877624463724
0.9938053947701849
0.9938091165671886
0.9960974267542018
0.9953909223112569
0.9959294898160833
0.9958630395392822
0.9957311014200587
0.9962096736789016
0.995807364161013
0.9974157624864981
0.9974958248201826
0.997255690359479
0.9976023060094391
0.9976181889996071
0.9972751707954186
0.9973974725312134
0.9951884310697675
0.9942361355573974
0.9944025894027061
0.9943606727746961
0.9948651564274942
0.9947208157274222
0.9947851530879571
0.9965238863203681
0.9960856978091175
0.9959367776044441
0.9960314095194077
0.9963533550735527
0.9962304770296447
0.9962709212423568
0.9976562292704411
0.9977180294515288
0.9974431298316575
0.9977554888755809
0.9978276563109519
0.9975735590905146
0.9975310351149103
0.9938248736202605
0.9936943257994573
0.9926504771647435
0.9938654689352625
0.9942624661936255
0.9933920677165611
0.9931739416357969
0.9955946345970483
0.9949311261108484
0.995176773787421
0.9948763235643411
0.9951447446032831
0.9953689490862707
0.9954135635272778
0.9972075549689889
0.9973631388077154
0.9970179327819629
0.997348244112395
0.9974361845039529
0.9971057675035468
0.9971233952468723
0.9927224226027581
0.9921961973565769
0.9924736381919039
0.9935237958163918
0.9932521727346112
0.9930191078932242
0.9918331041997159
0.9950287558073747
0.994976503161956
0.9942198311459246
0.9946484559809844
0.9951781784639124
0.9944693602222616
0.9948195705199016
0.9969108986482844
0.9970986990448442
0.9967924869069908
0.9971610611484907
0.9971804886257276
0.9968159491164329
0.9968882692450198
0.988851740997222
0.9824068991041675
0.986994004310333
0.9895287673056962
0.9876376357918371
0.9902407418414498
0.9850604886451251
0.9925064961708346
0.9923858930551267
0.991978666660805
0.993506750333697
0.9931900483495201
0.9928899904081681
0.9915365612814548
0.9655490088624261
0.9669049614528764
0.9727074095080742
0.9547717759468689
0.9821859865755359
0.9768203628462558
0.9838409786578941
0.9745049336161914
0.991562275004097
0.9958771445292306
0.9913667635953354
0.9925805323433162
0.9896540877975752
0.9945537814171209
0.9933133151191069
0.9848880583841514
0.9722443377581726
0.9792878740546225
0.9805378925392083
0.9433549097061423
0.932580006583952
0.9507383990427701
0.921716947420774
0.9987169190316041
0.9988448727904227
0.9986898255650943
0.9974843743659453
0.9972915616986496
0.9975076698459738
0.9972288635009942
0.9975229559819566
0.9972469406109955
0.9974688112234377
0.9983459256742153
0.9984613755616105
0.9984432165901568
0.9983558716975112
0.9983639292422948
0.9984497932013159
0.9983373723374807
0.9976906902013258
0.997655674395907
0.9975258268118919
0.9974033705376982
0.9977257859740037
0.997619393145476
0.9974856460618097
0.9984418210751156
0.9985232663593844
0.9985030305378939
0.9984283851934626
0.9984121432087819
0.9985421887597814
0.9984181042820499
0.9951455346001705
0.9947524945767774
0.9950164133248789
0.9943100187445287
0.9952625459271708
0.9946138038258108
0.9948921145259462
0.9970005241563623
0.9973029281182942
0.9969454105460218
0.9971614038690858
0.9970539214330225
0.9972567093811521
0.9968896618227325
0.9911303356581278
0.9903545267310548
0.9902444538541226
0.9917822451547446
0.9915057499329593
0.9914213171928261
0.9898849897507334
0.9945094442095594
0.9948081471562954
0.9940517299252346
0.9940108836707165
0.9946448966335725
0.9946776140757814
0.9938485162226213
0.9966772204004303
0.9970312703356679
0.9967133707077825
0.9969584200282778
0.9967375243494856
0.9969794985208451
0.9966525327992406
0.9918265499078387
0.9877600528628377
0.9895644767013181
0.9902653201079135
0.9907941510330446
0.9925703351593506
0.9901957487222961
0.993903590519601
0.9937093621592481
0.9925225518322378
0.9939014237177156
0.9943555771251837
0.9933628828114586
0.9931410939107166
0.9768894213400893
0.9685932581341973
0.9829723361664012
0.9800747535623264
0.9639566005690799
0.9768220946123899
0.9718052218498019
0.9871316684430377
0.9866747608673255
0.9873540828209723
0.9801818584204565
0.9880794816561107
0.9850796361597396
0.9833460458266643
0.9916319692771294
0.9930668580537008
0.9918095833949928
0.9916772628506723
0.9924457385592762
0.9923767455511949
0.9908604399545157
0.9734750612080304
0.9435300411863828
0.9721927282863887
0.9616438603380705
0.9734581966813771
0.9561482200917136
0.9705514808777965
0.9806084998654618
0.9783152352037383
0.9699725721996588
0.9790207757901668
0.9812170337418565
0.9776364479389393
0.9761804601712414
0.9364242874147466
0.9455497777752216
0.9538281747900349
0.9344813939893487
0.9262951257256482
0.9530343114441138
0.9427385759678261
0.9154399729878292
0.941734356069087
0.9432977695728584
0.9319394646777709
0.9232738713040174
0.925273520369241
0.9374140822156686
0.970764913668023
0.9644591938106044
0.951325927445121
0.9590380338642788
0.9668716173798835
0.9580700070306382
0.9663935623737517
0.9628313941802764
0.9446387615204489
0.9195567821788151
0.9577627843679983
0.9592263255809298
0.9681713611354199
0.9455108426949417
0.9794958982700743
0.9804685270174457
0.9858329235017693
0.9785709667017566
0.9836994865600964
0.9822622983840077
0.9743333347422681
0.9895944956339274
0.9912512452957195
0.9915837084528085
0.9910710256118589
0.9908029611253889
0.9905664571033476
0.990162295595256
0.9384291752570185
0.9004794785648356
0.9165083971446357
0.9336793897504478
0.9565872225585644
0.9502679393791889
0.9425480162186708
0.9703702217241161
0.9768530504785368
0.9674159100529014
0.9647294136550459
0.9745555094440194
0.9730944540583463
0.9606143688326273
0.9866832569422807
0.9889974814697229
0.98885202909053
0.9879635609821736
0.9884039932167421
0.9874310492759891
0.9872374059568393
0.8842361821795333
0.8845950582587118
0.9010976892585764
0.8646960424173491
0.8446667609641614
0.8797712887133126
0.8675300724469772
0.8590129738914525
0.9988076837118482
0.9986377707790044
0.9986602899364355
0.998796823715189
0.9986416905666066
0.9986194475571212
0.9987815257354581
0.8894175232297961
0.858779078366628
0.8165330518966664
0.8061557044305436
0.9979915990427711
0.9977235487132019
0.9978690022702437
0.9979365753266387
0.9978993187776729
0.9980267337287828
0.997828783000948
0.9981400612816754
0.9980914198330441
0.9983028326706643
0.9982031592830183
0.9982766924552587
0.998058615585097
0.9981707018577748
0.9981188889643823
0.9980249278779038
0.9981832241516767
0.9982475022622657
0.9982573315622851
0.9980362561563259
0.998108122559359
0.9984916649468105
0.9984619920955597
0.9984251526021005
0.9983329307849764
0.9984065557055567
0.9984434681465595
0.9985023766359687
0.9984704124394622
0.9983156493835391
0.9984180540734511
0.9983760896945302
0.9983856461409524
0.9984244593695462
0.998462370910477
0.9976634792157895
0.9973839447197674
0.9976464612762638
0.9975023587476183
0.9977058128006384
0.9974536257738352
0.9976029109412073
0.9978514324217336
0.9978364633295782
0.9979739657942117
0.9980520391049024
0.9980199016740414
0.9978883613160472
0.9977986417236364
0.997826466139465
0.9977601251088123
0.997951839113379
0.9979873848144382
0.9979982637755218
0.9977730454671854
0.9978138765298127
0.9977061531498241
0.9974863892075537
0.9975943979293166
0.9977728704819816
0.9977863393460943
0.9975025241128654
0.9976921302868105
0.9977339050218982
0.9975813363790548
0.9976249068858021
0.9978521993512841
0.9978129833553839
0.997774789387441
0.9975344183944596
0.9979131259082922
0.9981058711993477
0.9980173761558493
0.9981361205630721
0.9979826856333507
0.998074237463923
0.9979489892457687
0.9978888433358997
0.9980422478618045
0.9979473423506374
0.9981149887911192
0.9979591850128592
0.9980529143002321
0.9978766054271374
0.9984284599893305
0.9985158200018983
0.9984222273714907
0.998495264521457
0.9985305531692661
0.998402973691891
0.9984096713817748
0.998305278376969
0.9982955809306512
0.998131434438451
0.9981974514526825
0.9981706823239959
0.9983209906590036
0.9982742411915232
0.9982902900507481
0.9982494767326948
0.9981124690859795
0.9981431169357174
0.9981523165568182
0.9982578494583614
0.998283010316813
0.9984630619782207
0.9985591340179317
0.9978726285228487
0.9984939912309915
0.9985844598074393
0.9983888753086533
0.9984130293398467
0.9983470979919404
0.9982461087289628
0.9984677218009061
0.9982748463336197
0.9983980043540648
0.9982186803506453
0.9983663275914814
0.9984477079372656
0.9985564992669297
0.9984278995305114
0.998395777074869
0.9985605937897306
0.998373100751426
0.9984458490127682
0.9983316795374956
0.9981910742690209
0.9982552232186459
0.9983737780604756
0.9983809216671661
0.9982001326797317
0.9983249223346746
0.9982584480869399
0.9981339195159799
0.998337255392781
0.9983151249640461
0.9982104813459494
0.9983777768381185
0.9981849615718938
0.9985550449899832
0.9985019091257347
0.9984541564335694
0.9984358792328264
0.9985372838420725
0.998483853451108
0.9985259701929476
0.9979956963469998
0.9978859282717587
0.9981031712355943
0.9980952033136292
0.9979367556907329
0.9981494512093122
0.997946002047543
0.9978921502007684
0.9976422046153138
0.9977981902936709
0.9979030439573232
0.9978279105953113
0.9979644384137503
0.9977156605313521
0.9980525359726465
0.9981468856944872
0.9980620700999603
0.9982553392819735
0.9979956611390706
0.9981160302373999
0.9981993552855574
0.9984608290018058
0.9983289497348056
0.9982439899436995
0.9982372532525867
0.9983611187089113
0.9982955185691722
0.9983646644631913
0.9984342607237559
0.9982790796678983
0.9984382359827111
0.998385873690164
0.9983952318669207
0.998463698575127
0.9983360405806833
0.9942152403699331
0.9929314572055922
0.9935320641810892
0.9935472750595619
0.9936347011526082
0.9936258979763892
0.9941371203697612
0.9948710690605563
0.994602184648933
0.9949232952371294
0.9954796011745926
0.9953238583222933
0.9950557213796581
0.9943974394735801
0.9947433438735301
0.9941831732610764
0.9948049078414888
0.9951615869387964
0.9952164271634638
0.9942556860392638
0.9946780428980502
0.9960203631692676
0.9952915172612666
0.995680753741554
0.9955940426362806
0.9956403165684522
0.9957234714236938
0.9959811364628928
0.9964271130466084
0.9962826015446982
0.9965107166416199
0.9968062941817638
0.9967240601120542
0.9965229993088972
0.9961788183485804
0.9963614137383332
0.9960714930748187
0.9964501039354188
0.9966392544748468
0.9966678166617451
0.9961076735093983
0.9963280126620014
0.9974518735554971
0.9975291362975536
0.9973700777478549
0.9976956847379284
0.9976495648449407
0.9975049028250568
0.9973136253113343
0.9972334529047133
0.9971395820731509
0.9968078076492347
0.9970625816055406
0.9969917879784203
0.9972946190454071
0.9970742373553543
0.997191747843481
0.9970070714049425
0.9967559406656545
0.9969189237910595
0.9969434479564314
0.9970296675411492
0.9971706085349771
0.9955637369637014
0.9948612640287106
0.9955688672944399
0.9956776690388337
0.9952896501849755
0.995910850201462
0.9951643954120822
0.9967926615350953
0.9964157268019993
0.9968492247440927
0.9969121114427462
0.9966460771926714
0.9970385343198479
0.9965741448236237
0.9974686198516061
0.9972239862436379
0.9970987956593284
0.997153883057853
0.9973736652359114
0.9972632746741863
0.9973253125060068
0.9934201041792375
0.9921225664550845
0.9922577934276248
0.9925636367071489
0.9930601545683505
0.9929536863003039
0.9926901361847972
0.9940660077836818
0.9933557922998442
0.9943847850929627
0.9943169568353939
0.9946378751680333
0.993764851450112
0.9936802304207633
0.9944060381506042
0.9944434277630313
0.9946240236381586
0.995237623002388
0.9947753896599453
0.9949246985278906
0.9940462452949966
0.9959946027534846
0.9956409852030484
0.9962191102136403
0.9961889106013978
0.9963508278856296
0.9958038984035702
0.9958404802527978
0.9958012059888685
0.9951351263831988
0.9958287917810095
0.9956537792844333
0.9960283378582899
0.9953876710413515
0.9955880530836443
0.9961709491893436
0.9963479901604517
0.9961956235404852
0.9966692175675003
0.9963655183575885
0.9965019488006782
0.9959902010649198
0.9969529143092909
0.9967327302937632
0.9965556856964343
0.9965305949610396
0.9966687004881071
0.9968346013989401
0.9968555731263832
0.9973047684245435
0.9974362171982065
0.9976151733220044
0.9973203244112672
0.9975206967196256
0.9974132315496852
0.9972071985407815
0.9970651283791647
0.9966669825058067
0.9970826019239022
0.9969429861999876
0.9971900307457874
0.9967986874838658
0.9969519943654215
0.992518935421966
0.9918919019050969
0.9909385489575038
0.9922342979846508
0.9927564372648219
0.9919760922949529
0.9916049280865229
0.9923562106471198
0.9907216178245865
0.9913091010048745
0.9917082059805061
0.9917986158442789
0.9914098967546802
0.992273180575943
0.9933139585043056
0.9930826676396182
0.9941725458495433
0.9936410535966905
0.9935115380692686
0.9940073969747981
0.9928694092355618
0.9931785624535352
0.9926487313249841
0.993519740595724
0.9938369536811508
0.9938943701490001
0.9927231294320867
0.9931096902081042
0.9922314048144888
0.9916304472279509
0.9907014280100472
0.9921349697455344
0.9925515007366448
0.9917928003720451
0.9912381455844701
0.9925157218867882
0.9922427455364969
0.991447505810097
0.9929663105645151
0.9930632329498982
0.9915785993629271
0.9924095582311222
0.9920079842570866
0.9904039223741734
0.9908185506558284
0.9914313962401564
0.9915540866324709
0.9909613112023926
0.9918931376735817
0.9930873094702377
0.9930046798551581
0.9935279201694792
0.9940432224765677
0.9933494395342216
0.9938272403596727
0.9927261328478119
0.9929053227474742
0.9924335503839505
0.9933698253454318
0.9936014485675265
0.9936778462419721
0.9925326977882006
0.992812045144241
0.9934939600213161
0.994159352534023
0.9943677776548534
0.9945342189051919
0.9939346147649823
0.9937380160090296
0.9941657395841472
0.9933246644120229
0.9936991331799558
0.9939546692841122
0.9944049868220316
0.9937788668217387
0.9940260697341361
0.9932379345189919
0.995517922986959
0.9954729162675161
0.9957979078109341
0.996053037728423
0.9956433151239015
0.9959472324681952
0.9953416282155333
0.9949259726130261
0.9940896284904466
0.9946565514145457
0.9942828064378483
0.9943458499046515
0.9947115896581138
0.9948735921514911
0.9954318636596831
0.9957222246472931
0.9952056226000049
0.99583792545621
0.9958747615065883
0.9952514981962889
0.9953880668816136
0.9952670422923073
0.994920900486613
0.9950623170382484
0.9956603596563819
0.9955285857095632
0.9954079971867908
0.9947526304956293
0.9951701211359799
0.9945774485822051
0.9949544365433297
0.9953918877385257
0.9954380187283657
0.9946366384155755
0.9951207395656826
0.9957193716778343
0.9962188633511895
0.9960527449001809
0.9963074947165409
0.9959412901844464
0.9958380914866589
0.9961183527781422
0.9956379191341753
0.9960145527671936
0.9958259695036831
0.9962426563249058
0.995864852366551
0.9960495288023282
0.9955964752660811
0.9969555536231496
0.9971383882487292
0.9969301535711736
0.9972752297989567
0.9972188583191305
0.9970210682346909
0.9968622434236901
0.99665940826467
0.9966302207009422
0.9961982331047312
0.9964150636814165
0.9967359041188437
0.9963253208531642
0.9965507499228049
0.9966071915039869
0.99646896907739
0.9961343221528154
0.9962328088295641
0.9962639622309135
0.9964964926053247
0.99658070602836
0.9970204972822393
0.9972564503534437
0.9973808325293452
0.9971220434678324
0.9972751061804866
0.997142660109796
0.9969988233619987
0.9970632709119401
0.9973660904102377
0.9974159823231379
0.9972430731457735
0.9973119531901656
0.9971833517810426
0.9971260354546672
0.9967845600087398
0.9965568564901341
0.996993063646184
0.9966332431532341
0.9969237137838445
0.9968576553383395
0.9964713433675374
0.9967346754004892
0.9963832191030244
0.9968524047912116
0.9965779806637917
0.9968763976483985
0.9964128918288169
0.9967093761860282
0.9838277102963161
0.9764972103765686
0.9887096676233004
0.9868781556834961
0.9830368172421718
0.9899020688982928
0.9778641865932576
0.9744494632507524
0.9860783573972153
0.9877149272911628
0.9860914337049772
0.97424623092837
0.9764905930638034
0.984819123752037
0.9867815420467704
0.9832605510338663
0.9814695742706553
0.9893917357782342
0.9873019860199667
0.9895574418959522
0.9786884573418664
0.9860668892448553
0.9755464513978385
0.9806721407034906
0.9859458421512052
0.9867780067600418
0.9774907334330691
0.9849169911276441
0.9885112604310411
0.9817084529595254
0.983836515042497
0.9864218751468375
0.9871667971396342
0.9845855868938094
0.9879797647587719
0.9892862153300326
0.9875901448918333
0.9881837919897953
0.9901486901674905
0.9901437788875317
0.9905356368607611
0.9858749142366986
0.9889809322581203
0.9847918845925582
0.9877903648849949
0.9895310811003161
0.9898526575647503
0.9854554517064227
0.9885079293306825
0.9922376252832071
0.9921338487650412
0.9910796303797679
0.9928558720231534
0.9929688521797907
0.9912267340386212
0.9921013270340417
0.9917572383726295
0.9911185511638727
0.9894642927371521
0.9917021317352128
0.9910269122295025
0.9922260375839513
0.9905718827184949
0.9914272583877042
0.9902344314715247
0.9889539277088836
0.9902959738442426
0.9906280796109408
0.9901801930198568
0.9912573416007694
0.9614534127263842
0.9368423273044706
0.9538215400362428
0.9502806723976239
0.9726301533695527
0.9822602755902241
0.9764968585020877
0.9774523294472678
0.9784481695412881
0.9774220801128264
0.9722396218170193
0.9735903734704487
0.9844339503587443
0.9803145754799416
0.9791909520310178
0.9676033535113445
0.9715102347122149
0.9760175627523447
0.960181430246398
0.9660742285586237
0.965921464472262
0.9717065930325484
0.9605583978222617
0.9720975964085696
0.9553652120312337
0.966562658053269
0.9595328676099476
0.9390975989694713
0.9539007175925791
0.9562500359322065
0.9540637777252047
0.9511727843848753
0.9612780244558282
0.9676628043749
0.9739928551836494
0.9708735163147938
0.9638507268628671
0.9745697796218817
0.9627237779717923
0.9679363001754229
0.9882054783326173
0.9936742667988114
0.9928449908687191
0.9893750309373887
0.987376258683016
0.9919574717695152
0.9922606293589786
0.986944071826852
0.9810081657449218
0.9713226149580401
0.9728492325156275
0.9803877312005147
0.9788707528497509
0.9708136773667513
0.9712553526241083
0.9772321785145932
0.9777554712357586
0.9715274396502953
0.9783043355347164
0.9799826787762201
0.9751487511314841
0.9725800312832696
0.9802211852223468
0.9787735337689738
0.981554617673387
0.9730337804702325
0.9848115084686602
0.9892356347298251
0.9827814985888366
0.9876371781212977
0.9831807732239445
0.9895450027810462
0.9843896287532895
0.9856289428381884
0.990996392533895
0.9850583413194924
0.9882224784860523
0.9839551396013491
0.9901437674401247
0.9867885610000465
0.9941500983574059
0.9983761829460892
0.9971135864462303
0.9958764875042059
0.9879171854206014
0.9883641689712668
0.9865338488518762
0.9821103350615644
0.9861756450753686
0.9835558751994814
0.9902130861111978
0.9904262684791697
0.9889635564914698
0.9858407004264984
0.9927624151337314
0.9880750912992067
0.9796208715650628
0.9826479181666966
0.9858381555834118
0.9924323816603013
0.994700869758231
0.9908101917453481
0.9958682361836184
0.9856344631814603
0.9793661047383956
0.9777203202112632
0.982005587142041
0.9840237116428311
0.9805639468476949
0.983476988517529
0.989836919616723
0.9912923503286228
0.9920539776945123
0.9864254609052393
0.9879826179791429
0.9882179501372632
0.9932598508015618
0.9894795689918663
0.9911168929637147
0.9933072072206747
0.9865689667138251
0.9860177583114731
0.985874360996204
0.9873511579444642
0.9805660462773187
0.9819279648156328
0.9843325072713583
0.9891853151450913
0.9884695342162786
0.9882797191066388
0.9841081706378561
0.9917252253692763
0.9896266353703886
0.9901745361536841
0.9947009581407698
0.9907200326792053
0.9927395128576606
0.9877271874735196
0.9921350296830387
0.9922223701890523
0.9972768934578378
0.9953777641969677
0.994727493993918
0.9825779868084645
0.9729597366549979
0.976597677273517
0.977695835156335
0.9776167866208264
0.9810904723219772
0.9789490808787159
0.9869157181555821
0.9884148443629999
0.9886300303036208
0.9823774820768055
0.9906285193869053
0.9851099212422849
0.9840644898831674
0.9508764202853413
0.9675618254979881
0.9564905737724104
0.9643725535902582
0.9412997791315693
0.9147429147390664
0.9190224659993809
0.9384380053857254
0.9479505263837609
0.9617427508294847
0.961979253344793
0.9455709302707325
0.9445664758523069
0.9352897317541329
0.9515355146250983
0.9369195757808845
0.9510829483324463
0.947700041756115
0.9256872716858544
0.9489703725236571
0.9613794630387087
0.963630892372653
0.9534707479855249
0.9619886398120041
0.955344090829746
0.9470653974617895
0.9544139818554972
0.9674705966488958
0.960100778934556
0.9653177182778331
0.9582155503858792
0.9646590025332517
0.9569740439340683
0.9429383934978887
0.9195628025941827
0.934667922238503
0.9452512443791322
0.9447812619654172
0.92332032551001
0.9406270663729366
0.9975151520065606
0.9973266128974443
0.9975977409686917
0.9973352067506783
0.9975531937258117
0.9975604761981335
0.9972826650051003
0.9977224620034841
0.9977940162047437
0.9979364866528636
0.9979418248631962
0.9977554440367318
0.9979079268352077
0.9977616548153095
0.9976958702796416
0.997716088887718
0.997913880067401
0.9978732502502721
0.9977292987612328
0.9978849022574574
0.99768242751256
0.9974582730801439
0.9971984103913286
0.9972167212793296
0.997442519487832
0.9974894224554902
0.9973061151739718
0.9975352823645998
0.9972529047098575
0.9977001789338886
0.9979229407728397
0.9978886243166071
0.9977398146985363
0.9976732734268799
0.9978535011181449
0.9978653044582367
0.9976596685447031
0.998362906655561
0.9984811799109711
0.9984832305439831
0.9983962070915395
0.9983811036604113
0.9983843068554437
0.9984685623033734
0.9983484522868582
0.9984661504768889
0.9983698388792546
0.9984524627100317
0.9983314991123029
0.9984270834213205
0.9984336021039238
0.9983230147478214
0.9982250944832854
0.9982693251591536
0.9980991245258534
0.9981037486874008
0.9982462058645696
0.998074514994191
0.9982501870398127
0.9982073336694051
0.9982202566470387
0.9980795932394754
0.9980443157118901
0.9982290337020783
0.9980544920744798
0.9981982454213606
0.9982102639678424
0.9980875068253279
0.9980577649706189
0.9982360127464071
0.9981922082358902
0.9980270971190712
0.9980374261803919
0.9981829943782262
0.9978746517579107
0.997844336095241
0.9980666958672249
0.9979860550125654