/*--------------------------------*- C++ -*----------------------------------*\
  =========                 |
  \\      /  F ield         | OpenFOAM: The Open Source CFD Toolbox
   \\    /   O peration     | Website:  https://openfoam.org
    \\  /    A nd           | Version:  7
     \\/     M anipulation  |
\*---------------------------------------------------------------------------*/
FoamFile
{
    version     2.0;
    format      ascii;
    class       volScalarField;
    location    "0";
    object      p;
}
// * * * * * * * * * * * * * * * * * * * * * * * * * * * * * * * * * * * * * //

dimensions      [0 2 -2 0 0 0 0];

internalField   nonuniform List<scalar> 
12670
(
0.0001721120638161121
9.610942673991907e-05
4.658351391344678e-05
1.505152575226221e-05
-5.105796924865153e-06
-1.748396735913591e-05
-2.414007502679153e-05
-2.619281267310968e-05
-2.410855106932767e-05
-1.782974042196616e-05
-6.80197046512352e-06
0.0001175985908331766
6.051021215219887e-05
2.04155730961574e-05
-4.570593325051926e-06
-1.989438216784336e-05
-2.865768353820653e-05
-3.255767249092753e-05
-3.242784863271526e-05
-2.850245939014689e-05
-2.052075305990402e-05
-7.726833576718898e-06
0.000196468329219099
0.0001121971702405915
5.887500330683823e-05
2.458695330989387e-05
2.244657694144704e-06
-1.184738314816103e-05
-1.984815092542395e-05
-2.298650077141221e-05
-2.183265751883338e-05
-1.642729553550818e-05
-6.318055358051434e-06
0.0001495535928731646
8.170598375858355e-05
3.567320868493956e-05
6.724099768570569e-06
-1.143960607335024e-05
-2.229935066371907e-05
-2.778455527599695e-05
-2.890064212462818e-05
-2.601940518615688e-05
-1.899968722781323e-05
-7.203686697179045e-06
0.0001599727149693222
0.0001799658977526477
0.0007802632855187844
0.0005705925848078078
0.0002505128294691735
0.0008526281321392956
0.0006794241883212423
0.0003160126254989311
0.004362806305526035
0.002393724820711149
0.000884519957848208
0.004418447590611154
0.00244948409743148
0.0009649653551271935
0.004357232777626277
0.002081949566259472
0.0007734116585845186
0.004263161362054981
0.001958208065851177
0.0006482709192951052
0.01723121200178714
0.005107776670197389
0.0199698946079757
0.0001217099692950768
0.0001705782275752408
0.0005307260899019419
0.000231390638227719
0.0006463817516870516
0.0002921366472606018
0.001996022665326288
0.0007360036142786144
0.003641437954920086
0.001858462252123793
0.0006026108550129395
0.01681405385328137
0.005153918095449855
0.05074163513597796
0.01749713791598658
0.005116670201449513
0.05501013110551733
0.02096635893624556
0.05853608510765372
0.05993583057405747
0.05648392434853527
0.05546803215317337
0.01788163053799608
0.005024226943847083
0.05663289031495562
0.02085091489369728
0.004373734879317544
8.735461545377757e-05
3.949666951989207e-05
5.321972482620236e-06
-1.562414915730234e-05
-2.809933530394934e-05
-3.478946708294798e-05
-3.713637148551653e-05
-3.579466322158743e-05
-3.086113399436924e-05
-2.195885509826133e-05
-8.219820233375983e-06
6.327719797125465e-05
2.225333900141632e-05
-3.3356786994393e-06
-1.903372626149182e-05
-2.803887339144062e-05
-3.21046398115747e-05
-3.209622964293492e-05
-2.826808849338064e-05
-2.03750214735226e-05
-7.675951374494139e-06
0.0001402071044385313
0.0008253566343901995
0.000569135482583438
0.0005411943496738558
0.0004164550655073068
0.0004989879467980642
0.0003935016252406526
0.0004816859096014203
0.0006382378291553851
0.000439387628702086
0.0003965410917680604
0.0007240378261326409
0.0007754131950643859
0.0005261760649839932
0.0004988398450340459
0.0002898873398114312
0.0003933711114833217
0.0003545313808863436
0.0004713834859990913
0.0004285027453122653
0.0003479046767842638
0.0004385362491369518
0.0005941324508804356
0.0004345526873040991
0.0005263540715680029
0.0004650455140914966
0.000806695242124995
0.0005548299657595177
0.0004153262733237065
0.0004070593030825048
0.000484741379216435
0.004226893129001589
0.002768495452532556
0.002653111465353034
0.002288020960767616
0.001574760339116221
0.0014966252462059
0.0009349276454717819
0.001377189807701984
0.00130703454639929
0.002827204583968474
0.001618943392795065
0.001417485323210817
0.004013774275433352
0.002435790608973011
0.002743672386554651
0.001333589306145203
0.002367190338577441
0.001549039822913637
0.001158332690358431
0.0009148760381241262
0.001352717249475109
0.003891773070338134
0.003669838206774521
0.002340153241081478
0.002174118932204199
0.00379862480505928
0.004056061213529942
0.00337253740886291
0.002293188620434941
0.002031379954418184
0.002663708848937473
0.002511265486271484
0.001252548476767738
0.001735411081224939
0.0011128155141487
0.002293994141820659
0.002158270663487454
0.001495088389987013
0.001400625474745868
0.0007263270343488758
0.001087760749343678
0.0009674081719721964
0.0008220299378015088
0.0008800799918173813
0.001304318265943903
0.001220725791000728
0.02050485321941118
0.03964530016487017
0.01870928956602324
0.02022847119230323
0.01834797793960475
0.009526864687019194
0.009527979836051205
0.004972559694404494
0.008374398730015267
0.008735359432823889
0.03458451592006426
0.04638333261615508
0.05520220093457057
0.04279464610407771
0.04307365613628764
0.04007483711280555
0.02833964940411014
0.02628353630125324
0.03067464270032224
0.03818039861307267
0.02500063103388304
0.03139765230110091
0.02171127901806913
0.04237619211894448
0.02969857533024556
0.05596996158745033
0.04798002712671191
0.04483260248544998
0.05810667349519755
0.000602673346456614
0.0004164805708304673
0.0003693066610918309
0.0002686500328583356
0.0003725076018660041
0.0003293428254428259
0.0004445357792533131
0.0003979545975121972
0.001272952036541613
0.001104555467828689
0.003360468381295331
0.003150207259335966
0.002180135678187727
0.001887888904459498
0.001184776463597918
0.001611882185060703
0.001033127926873956
0.000685812168634435
0.001028204892523251
0.0008982711956662596
0.01880033198564263
0.01817619450374233
0.009496578662051954
0.008291907872451166
0.03048830684026709
0.01901727085044037
0.02318337485603888
0.009599674555865684
0.02069932026939445
0.009718716831171698
0.004792389972782396
0.008499830003047064
0.008779503957304148
0.02355979080285395
0.02493975803046808
0.009660383185943503
0.02190735360499725
0.009415315428208363
0.004650787443130374
0.004431311668691288
0.008704211008072258
0.008432294209197166
0.05018720542618731
0.05676784305781876
0.06596415740734053
0.06802598916367887
0.07430140337518178
0.0671140913994039
0.03981160223556531
0.04596732514262551
0.03235160993364476
0.03310388439123708
0.05040869396478458
0.01952108554602621
0.02077022651168229
0.02322959591786141
0.05388927274079521
0.02110104218331272
0.0187451629281093
0.009566523556871025
0.009474947885630731
0.02065052912060999
0.00950647978579819
0.01859571076228145
0.008298934231229521
0.004533415472216385
0.004802918656123557
0.004046341004985864
0.00889840729554018
0.008645711432769182
0.008565147731369053
0.007473028193457576
0.06837486385039249
0.02353380243755012
0.02464123331486797
0.06769936801070897
0.02089806206757262
0.02010227591892476
0.009431749655475245
0.02153584069772088
0.009066185309258727
0.01836458575349606
0.008077303561128723
0.01740474070375998
0.007122780547125986
0.004071115367284766
0.00379490694443025
0.008489800786172669
0.008103053208907281
0.007260344055908338
0.05740467303388397
0.05910210472074539
0.06592613548123792
0.06345633513551298
0.07376831408757799
0.06839039424575849
0.0669837569698068
0.06398828672344047
0.06885496613507881
0.07511471656761307
0.07455549373378507
0.06900745500832095
0.01806561854549839
0.0578957288006729
0.0003165788765179919
0.000304414582159727
0.000238622633344364
0.0002305700122628284
0.0001675729410935036
0.0002149979530408428
0.0002300319162908713
0.0002632703522261257
0.0002527522138732418
0.0001890812352117457
0.0001876090956889667
0.0003386191375317847
0.0002583615151215003
0.0002568943664284166
0.000299250820453041
0.0002215385311972264
0.0007464105197913038
0.0007881437067505784
0.0008355451430752532
0.0006896780879732191
0.0006966272021148005
0.0008423372579233428
0.0007402663219554226
0.0005538969748538075
0.0005823884520637749
0.0005036342402241478
0.0006172780460665987
0.0006281922603263459
0.0005138019693214436
0.0005445133627235626
0.0003189486888982745
0.0002564347447511749
0.0002839612556476646
0.0002764622828802593
0.0002837990989444182
0.0002909589495409639
0.0003111612083746415
0.0008201929805880081
0.0008835387327421194
0.0008971023042274655
0.0007549007784345974
0.0007963118132097261
0.0007834130656496043
0.0009230160553430902
0.0006714955884201103
0.0005978778289296071
0.000726813632560492
0.0007182167135373793
0.000632204108897888
0.00076225798340798
0.0006395237345949255
0.0004538593462948987
0.0003603692173698597
0.0003620625739605144
0.000353556140575397
0.0004738679748348134
0.000395957842713064
0.0004022008215640922
0.00377343168159286
0.004303321245395405
0.004416215831047245
0.003737543321621578
0.003807865979578328
0.003678383134726828
0.004386836741974671
0.002122630871906536
0.002344398547052925
0.002075898610764824
0.00247661275662031
0.002441006661843094
0.002156498921922799
0.00203071600184633
0.001080208384859237
0.000893387570313822
0.001004971783959319
0.0009452769231245196
0.0009528053210602192
0.001014932308259906
0.001071859150846824
0.003856130486713826
0.004455666189007213
0.004436905575657619
0.00379733514790491
0.003838619163442504
0.003845657125624707
0.004437794754663398
0.002232744638349458
0.002128015915873188
0.002504786127197295
0.002515751687299997
0.002194804410665501
0.00255268954888981
0.002181369328748729
0.00117671972358018
0.0009987354373616887
0.001094458214982118
0.001013033552205228
0.001041146533549784
0.001146356667640374
0.001131394613957276
0.003738677820082603
0.004435106770841407
0.004262057662979771
0.003722308236615561
0.003804406218951374
0.003621202486985245
0.004382748159117976
0.001973932518206101
0.002212445333282744
0.001787398311347172
0.00217692290982224
0.002289928947197979
0.001873085056328149
0.001902441144209871
0.0009869159559756362
0.0008271063102124222
0.0008823993992221833
0.0008169851438376277
0.0008664311443977356
0.0009312834863047844
0.0009432470185750537
0.003382128040315141
0.004125776316371682
0.00417026364046838
0.00363083894213926
0.003544713764306235
0.003496293735298577
0.003997143963365837
0.001698434017496613
0.00168003825348982
0.001852766836616116
0.002069009090634256
0.001778442081154396
0.001976657861807749
0.00158960819121931
0.0008138838080398464
0.0006619320044117711
0.0007385747053987911
0.0007015320084845167
0.000714138430491341
0.0007543945548638422
0.000799352639546832
0.01265646080684977
0.01803220671734732
0.01338040671091518
0.01493594962894683
0.01593972415448366
0.01213387030261614
0.01368653071298727
0.005975198197028427
0.005051968620596125
0.005997570792312525
0.005132879428243251
0.005113397905555663
0.005976400450726352
0.005953783154851306
0.05174971223901761
0.05189426405937558
0.04689547199252262
0.06088959121273037
0.03857641116889216
0.04385681624868404
0.03662091611486908
0.04626211379637252
0.02485006725209214
0.01876331165281251
0.02330706970421357
0.02179395198981509
0.02542615254667708
0.02077526248893553
0.02245346688113182
0.03525545260011576
0.04881935957996717
0.04103121607548299
0.03984118127779362
0.06719603012349606
0.0722411375950535
0.06272666063305558
0.07622092349681175
0.0002341448408962742
0.0001641731910037541
0.0002212501507890625
0.0004526792298978662
0.0005432842958390808
0.0004687848482883321
0.0004992431055940746
0.0004796372643107217
0.0005124076599355642
0.0004412832106877166
0.0002507910282592495
0.0002371196611978311
0.0002160314748225023
0.0002609020868669114
0.0002674942196810315
0.0002215305603255343
0.0002443720322213904
0.0005921292854332873
0.0005689264858582242
0.0006966383431947551
0.000620379588117074
0.0006127944832638565
0.0005463046855771347
0.0006729466812781972
0.0003445542903000374
0.0002728011629477462
0.0003332589040660928
0.0003320003305885001
0.0003674506056461256
0.0003041587890861857
0.000311548422500228
0.001785113336070943
0.002141753681427744
0.001710654088948903
0.001925298814477746
0.001837998890697559
0.002083253290045375
0.001647948864964283
0.0008752777916822797
0.0007932889451124487
0.0008401579670562962
0.0007063858117515791
0.0009054230284936842
0.000766500678346993
0.000806542037998358
0.002718982725183607
0.003508863444851232
0.003415690425179584
0.003050823740448932
0.002930884047509836
0.002858670837828975
0.003257495110145725
0.001414109021840206
0.001592266244362645
0.001776662069406211
0.001741602017368649
0.001492803479066414
0.001520763347141513
0.001650674990431472
0.0006624316549431801
0.0006171736835969646
0.0006862256071784305
0.0005664648155424282
0.000703142943834958
0.000581740687633405
0.0006446493501559594
0.01140708891332467
0.01319333840670337
0.01509946645449541
0.01448049628915854
0.01189597512008146
0.01279311033430133
0.01232978115738649
0.005891955397307522
0.00517180813679884
0.006025650335756156
0.005136728588587898
0.005112182756845216
0.005954025605262899
0.006012047663962396
0.03814029638537949
0.04257650044223656
0.03164708273991342
0.02855199709892192
0.03658220979313741
0.03113893333955971
0.03250194992295048
0.01463200574966142
0.01354339820335651
0.01651009112917729
0.01919703470405677
0.01419255295350636
0.01777559834183911
0.01432360473277023
0.006083588157554799
0.005183950356134059
0.005036827843404128
0.006028360504305492
0.005154646684851471
0.00607518897428429
0.005965422629059159
0.04179993256512401
0.06201425258301727
0.03737840441609723
0.037754254931607
0.03626751261750947
0.04058990093597035
0.04471230425012297
0.01693242123424328
0.01489523324970615
0.02156429185367831
0.02055294953994717
0.01675541631990332
0.02111827403137145
0.01499722535679724
0.07049888203276623
0.06836481819386579
0.05399804758050078
0.06349221836752345
0.07702212089657755
0.06207016509475578
0.05897303639967259
0.08466071840255189
0.06385705770204354
0.07029716441069778
0.06482375356742848
0.07905633207369317
0.06870541176774479
0.07557336282943246
0.04886382394836959
0.04929103619603664
0.06498900543349931
0.0520004934297463
0.04791296871589108
0.05890610948874492
0.05406025825921955
0.04572911087125508
0.05191136596837934
0.06116997060290089
0.0355785529700181
0.03761532151203489
0.03375285502687721
0.03804105202924352
0.01413295162577656
0.0185511594769206
0.01369779884023018
0.01942612145499121
0.01389565251703781
0.01434851879702959
0.01951949372348903
0.005682719868342318
0.004892764018154389
0.004927670937298428
0.005930796021333376
0.004749428528205948
0.005843968887686736
0.005832827764421573
0.06387604471827432
0.06828734749563904
0.06213449300287012
0.03883608177948376
0.0387104859866339
0.04143175409214929
0.0386289695222209
0.0132613649980143
0.014664704391419
0.02128705840283852
0.01973035089753412
0.01464635352916663
0.01365171604990831
0.01960695062336715
0.004766981817885251
0.004232541350111771
0.004111734790011558
0.00529114903340457
0.003935456351799017
0.005130997940396385
0.004970655255975884
0.0859118930797365
0.09068124142793899
0.08449372818925177
0.09039101204473426
0.09646023726316856
0.09266118754621949
0.09834768721463899
0.0918859455888839
0.0001513660627354135
0.0001849322683006621
0.0002016117950122556
0.0001413505640203644
0.0001870435030722198
0.0001695407838304457
0.0001285414112678745
0.1052190695339845
0.1100031468100952
0.1056698115275947
0.1026403783483527
0.0007583390907807007
0.0008034600286503873
0.0008740911525098113
0.0007298548522294179
0.000710208830951889
0.0007751637235339779
0.0008554782512158897
0.0006739516823069887
0.0006456163664141169
0.0006128675104426492
0.0005553058235017454
0.000600363056833121
0.0006282794656508862
0.0006889226019188612
0.0006629757870349043
0.0006105790579859483
0.0005459958290165091
0.0005849832734046648
0.000589904547672629
0.0006165491434521231
0.0006574091544052272
0.000478643121962084
0.0004479104489520954
0.0005439638767529263
0.0004925452589991812
0.0005326345899452987
0.0004461732853643956
0.0004902399564356993
0.0004711991932565787
0.0004851722266098672
0.0004332692921461276
0.0005201811402923766
0.0005240162789614665
0.0004370205380246098
0.0004675889018585748
0.0005722026567556357
0.0006053395664074692
0.0005620226602496899
0.0006799536820156422
0.0005986088026641106
0.0006494460862605109
0.0005335935390719497
0.0005051595928293324
0.000495982702090205
0.0004190359247798791
0.0004648142255588403
0.0004475424416284315
0.0005273795101377969
0.0004717299899577163
0.0004896656458553133
0.0004459603719008182
0.0004042602962403597
0.0004278391743227389
0.0004346199673685122
0.0004547318276208754
0.0004816908174062109
0.0005986431788473549
0.0006690489676529798
0.0007329765907485308
0.0006389345426248593
0.0006466836567685236
0.0006790022333602914
0.0005900786372892491
0.0006154110760244909
0.0007262684804433351
0.0007503979268254049
0.0006840848305641029
0.000661902351153517
0.0006397269261047992
0.0006984007354603973
0.0005427846310948148
0.0004943658706253973
0.0006029816261225564
0.0005130238725357567
0.0005838185441049438
0.0004792845887223555
0.0005632769283893897
0.0005287210712021824
0.0004623836048363193
0.000564560754475341
0.000503605199290266
0.0005710138555765937
0.0004681566816709229
0.0005215476381261469
0.0003358258659255091
0.0002681041989308404
0.0003288264044226624
0.0003275903610775129
0.000296595875279188
0.0003609118239108151
0.0003059551935536348
0.0003676039247411198
0.000360806583149019
0.0003757119839761238
0.0004118291539826803
0.0004005495943728596
0.0003781205633807576
0.0003413497853478488
0.0003522410459480651
0.0003184991157007635
0.0003618099984386282
0.0003825620156234653
0.0003887764766557709
0.0003260251046513865
0.0003453935801243959
0.0003743801601022988
0.0003586821528443796
0.0004583717094236653
0.0003763801480539021
0.0003266372838610331
0.0004134228828673079
0.0004027383657299271
0.0004014824196318898
0.0004326176258306978
0.0003743089549632982
0.0004456478126347998
0.00041352022655144
0.0004271061724193594
0.0004088039687618082
0.0003545414636212587
0.0003026958873923171
0.0003606770184177892
0.0003792143081478684
0.0003111241628210093
0.0003898057728289124
0.0003453044300675521
0.0003859002483112865
0.0004130068509649349
0.0004407651616512318
0.0003955627790835158
0.0003984174144022027
0.0004178880463539498
0.0003791065271901444
0.0007309348850834233
0.000669481966650718
0.0006322115961748366
0.0006199574123062549
0.0007087481741478441
0.0006532054857994947
0.0006962698719310238
0.0005292088855385108
0.0004713932714386684
0.0005640454188661593
0.0005521143945824522
0.0005073898391806021
0.0005858240866452761
0.0004963951722829427
0.0005910263459500609
0.0005267391585130097
0.0004931946285669108
0.000488363806884642
0.0005563769787668667
0.0005147515114009265
0.0005625519327395982
0.0007072315289976295
0.000761214673242083
0.0008423966149295848
0.0007124470088347793
0.0006708180347803571
0.0007451600689425264
0.0008013550949851556
0.0006243113624020155
0.0005186881289219109
0.0006294744222548306
0.0005846401689580721
0.0005908017454396047
0.0006600815881595872
0.0005493196747819117
0.0003604550286485233
0.0003900466285135707
0.0004304706178203733
0.0004278803188033528
0.0004033918693540085
0.000415492498351132
0.0004059998327458969
0.0004293245080019566
0.0004595267595586285
0.0004360838671681493
0.0005154807012829097
0.0004231900428836653
0.0004655297654729129
0.0004781661899106936
0.003744466798011929
0.0042541375276936
0.004343813872660551
0.003605693555051515
0.003631423461104319
0.004359753373735287
0.003728114509299195
0.003254568331249972
0.003211758984968339
0.00271518561328437
0.002851372905792255
0.002814734804872289
0.003291054575721594
0.003154980634339701
0.003225372170426408
0.003087303516494869
0.002674818296496434
0.002770896773697197
0.002786344524134699
0.003111111705884993
0.003209243868466278
0.002097410882362727
0.002307631724908601
0.00197984549514357
0.002399529653759611
0.002414036511408208
0.001997461218245447
0.002083967887658743
0.001850672662499943
0.001805516607093588
0.001537563995136802
0.001647153740219113
0.001617712888512031
0.001882415520573877
0.001764419941027178
0.001827347318050397
0.001718718582144912
0.001510702684101369
0.001585049686906513
0.001596308703553736
0.001734484368239714
0.001815004450999129
0.001096280706916281
0.0009105547173522782
0.001061286278669738
0.0009878689018022356
0.0009673376899580727
0.001118880858092882
0.001034151869536923
0.001245195270759405
0.00120749416627823
0.001343638728142036
0.001444689819305097
0.001417591762159016
0.001269995463254225
0.00117730068998709
0.001227451754797981
0.001144608849809611
0.001319586782825953
0.001387840476766369
0.001398062563927767
0.001155792489347215
0.001218202666646178
0.003355184420276438
0.00327212026275094
0.002882980530595072
0.002890063319724074
0.00332729841690172
0.002923971421862947
0.003326003468775823
0.001956691029952482
0.00185369192573191
0.001666199895753796
0.001681748823265283
0.001919095352377183
0.001718130430291964
0.001904227642474185
0.001332437260842993
0.001244100295506406
0.001461272411040819
0.001476965268389595
0.001299865101811785
0.001511595886211889
0.001284406997331324
0.003656716356480545
0.004142861640483233
0.004221144727459136
0.003381616560541818
0.003567742042489946
0.003503699955228843
0.004308175521749123
0.003116359748850211
0.002863080931743511
0.002583394719518622
0.002540280236199378
0.002666294600388681
0.003029298533306216
0.002976823252624788
0.003200073915197129
0.003190447564669027
0.002645584340986093
0.002822698801310713
0.003272367035477235
0.002748366949671516
0.003089166571028653
0.001707548133970319
0.001540913407839615
0.001422679066121688
0.001402420257720971
0.001482075235481791
0.00161783667560106
0.00164217870698945
0.002047537873221528
0.002274247007507382
0.002048895520129784
0.002441776096879989
0.002118256322847271
0.002368334454105157
0.001962136430567739
0.001775811712643757
0.001475571559567903
0.001778882492550971
0.001607380498347552
0.001842725049700606
0.001544842877930438
0.001698745384336099
0.001126970242143633
0.001009463090191833
0.001236725167303515
0.001219798393174069
0.001290460974281824
0.001064291022876736
0.001078491712421064
0.001034321957808432
0.0008648276043159995
0.0009542091471212219
0.001039748628018638
0.0009094459084076042
0.001083227873447623
0.0009845410403667054
0.001179182394162644
0.001285718157633112
0.001184453020604777
0.001405762091146004
0.001232521014148525
0.001347826367086536
0.001123572159659383
0.003407965012431968
0.004133820459469474
0.003787094906418578
0.003267203220161982
0.003481799196354086
0.003169764790872142
0.004057086157315179
0.003354785953416189
0.003710096243769559
0.003972208015088143
0.00306173759967765
0.003099028744069375
0.004001701120902355
0.003326279737409215
0.002877786373113238
0.002757658377261963
0.002506647953575732
0.002260747201897345
0.002947216479545321
0.002442505898955635
0.002669162417245206
0.002827702260725199
0.002571878492249372
0.002203898996154618
0.002372182177628545
0.002396424639750084
0.002605402635461821
0.002801180513095405
0.003204635499277394
0.003964434980796845
0.003602203095970445
0.003193476472273421
0.003345897519777537
0.00302503283466824
0.003802256582364301
0.003295082249996975
0.00409675754356939
0.003843815055485068
0.003441837370655503
0.003478095831839979
0.003897975958979059
0.003248033287790809
0.003097424393999556
0.003453386243492402
0.003610536660293252
0.002830364972998361
0.002898425159748425
0.003677953816391178
0.003039713170645188
0.002714416790313778
0.002698995713447808
0.002170015796481942
0.002417431916023534
0.002837363132153396
0.002310807368431237
0.002554957038397175
0.00262251464035026
0.002390724316001019
0.002079402095348354
0.002190277984238178
0.002232082079101536
0.002447855194362754
0.002573387297618132
0.002875031273534295
0.003104136802302958
0.002543923482460355
0.002592714691814043
0.003025555722084583
0.002976029505070369
0.002454906471828671
0.002799124338540849
0.002933752547712833
0.002353702814898343
0.002539633574649993
0.00296589570404408
0.002388862583025942
0.002758424819021253
0.001465488400560769
0.001447697278981135
0.001185549170694432
0.001329691029878433
0.001534879501505752
0.001269412107728001
0.001369959681241191
0.001640445766820621
0.001775916692505991
0.001489916372696216
0.001873516482205306
0.001909154592461935
0.001524220792197958
0.001609981751924974
0.001415558255618124
0.00113772075406219
0.001284961377580421
0.001203846609544133
0.001226311013237476
0.001314133142341841
0.001389438395559318
0.001812640124871688
0.002183426903839127
0.002230281029406401
0.001982442294883986
0.001925519304075482
0.00188132222870869
0.002105179548644321
0.001762696238586693
0.002017372079055691
0.002183238987941836
0.001861980130391791
0.001883926927141493
0.002047754921530066
0.001736410748956189
0.001566754920692041
0.001411989741398916
0.001718890841522801
0.001449992534410654
0.001668181384622574
0.00162701396883706
0.001359107014038116
0.001523277948378681
0.001301432167838582
0.001612169218587537
0.001417573319106016
0.001631452794506332
0.001321209364366095
0.001500499616754493
0.0008420187626648859
0.0006884579669590056
0.0008285921747234131
0.0007735596783161107
0.0007386169816639877
0.0008819805055133009
0.000785036580575345
0.0009624941209019517
0.000947895613335794
0.001029862804221111
0.001155987558496567
0.001008240289815958
0.001103526615232454
0.0008977339577060541
0.0009301304969201725
0.000843935838759979
0.0009887499941384022
0.001046845381280553
0.001066224074245225
0.0008622854066062751
0.0009133676548883719
0.0008789999568592353
0.0007602287411602659
0.0008322104447107804
0.0009353995776347603
0.0007716644227613297
0.0009469572378131093
0.0008659042596541668
0.0009043388512170826
0.0008255321884318924
0.0008519570943294641
0.001000924418943133
0.0007938641549751401
0.000969296079223761
0.0009402843184998255
0.001032827482816154
0.001229389732078208
0.001141096336004899
0.001264249710712671
0.001105502482935179
0.001073661986496222
0.001182945202290373
0.001003893338785448
0.001132652062179039
0.001067105898518662
0.001235630769446583
0.001080225805077645
0.001149858642027082
0.0009888937355197411
0.02981836163891463
0.03588970076354869
0.02491067818016846
0.02226129496823986
0.02533020223532283
0.01956963415295856
0.02834288071357417
0.03736349364448031
0.02775667722512525
0.02601166022175126
0.02289429904794624
0.02995256011160645
0.02899848549723682
0.02386547879644341
0.02101692858223426
0.02361882999065573
0.01977348300733649
0.01592401852793102
0.01716058001242352
0.01877940538883605
0.02596784611753418
0.02153305242765839
0.02716298787714617
0.01997077782296339
0.01782706329979968
0.01743008158280444
0.02646099659926691
0.02231674378681005
0.01275789886251577
0.01817267481172409
0.01375201927135386
0.01646708613512
0.01615430665724095
0.01372425095304376
0.01290074648878086
0.0116877171044123
0.01228968530059315
0.0095424147767053
0.009155256975963675
0.009255256129320285
0.01124607929882995
0.01249886102925114
0.01176195593922984
0.01251377173612742
0.009526360285714013
0.0093273505596483
0.009288241465628396
0.01251633344593984
0.01186817399525905
0.005962044893845568
0.005001891499987828
0.00585842424722048
0.005075708894310975
0.005090814020896763
0.005905482294966694
0.005947878861811585
0.006993180393318777
0.007069576547226905
0.008370107569187405
0.008140272742706062
0.008213207941170012
0.006957752578089308
0.007047342825797828
0.006998683104465724
0.006956618916492226
0.008352316350913078
0.008270953280996994
0.008244746134012156
0.007008529872141303
0.006994721270571005
0.05419302926286151
0.0704142952749344
0.06087432702968512
0.06353761783116914
0.04432009485660517
0.03546576969040646
0.03854871290890789
0.03760398380021397
0.0391650542537564
0.04021273829882518
0.04180897066316235
0.04619971932386168
0.03540755890174999
0.03985644922981776
0.04104547701221564
0.0511636661789899
0.04818828450527995
0.04418820529943892
0.05750318617867824
0.04951950109703159
0.04984998493614516
0.04249769117268182
0.04994231083488134
0.04503170763012077
0.0584416971999712
0.04593047256827425
0.05366508196363608
0.06634515093870297
0.05304498105100575
0.05153354000831989
0.0581918432932392
0.06064145774251786
0.04901399743680488
0.04819271570780273
0.0403718008642983
0.04576425898247642
0.04727932485031486
0.04265404100680781
0.05159658208121349
0.04476522135128085
0.03166719580584618
0.02432126295567653
0.02558641632093563
0.03008030809471346
0.03277737520981548
0.02691909540091971
0.02646699839869783
0.03334968697458485
0.03995878274401962
0.04883586762027441
0.04796202395750707
0.04067480506711142
0.0392557092807496
0.04628867342380916
0.04256900444848331
0.03801296113682699
0.03754726481095579
0.04561894471914756
0.0398410205646132
0.03810887734159031
0.04237762648482737
0.04155648140743929
0.03528984451861247
0.03662740076052677
0.03646305247062479
0.04428640843143115
0.03325353889519779
0.02817974521177999
0.03304335151407643
0.02798563806491085
0.03263158607293916
0.02777138610357331
0.03374777884969481
0.032288033667636
0.02582144575040848
0.03064897114940326
0.02729123695098314
0.0318227889706289
0.02697326701343374
0.03089798746288508
0.02330580356227789
0.01670137227725411
0.01884868641957884
0.0206771818408734
0.0293241177056576
0.0268927249084405
0.03086785073247458
0.03340969958658088
0.02932070186728345
0.03413151398064769
0.02650475240434756
0.02833470818922595
0.03008770424486613
0.03388494156872845
0.02515117733056664
0.03138683299779884
0.04092256043068056
0.03754044948704904
0.03418730634774171
0.02581114220150849
0.02273140847579257
0.02810068247594889
0.02088286377410981
0.03198303384800876
0.03593671372608875
0.03998545638174677
0.03358459044158595
0.03157387915479816
0.03720719805957971
0.03438988459540557
0.02710640148156232
0.02348777601495879
0.02436580021610402
0.02915518289199795
0.02739530321931707
0.02914676613415531
0.02266342605400656
0.02978928855193903
0.02794863326598111
0.02471110758515328