/*--------------------------------*- C++ -*----------------------------------*\
  =========                 |
  \\      /  F ield         | OpenFOAM: The Open Source CFD Toolbox
   \\    /   O peration     | Website:  https://openfoam.org
    \\  /    A nd           | Version:  7
     \\/     M anipulation  |
\*---------------------------------------------------------------------------*/
FoamFile
{
    version     2.0;
    format      ascii;
    class       surfaceScalarField;
    location    "0";
    object      phi;
}
// * * * * * * * * * * * * * * * * * * * * * * * * * * * * * * * * * * * * * //

dimensions      [0 3 -1 0 0 0 0];

internalField   nonuniform List<scalar> 
36814
(
1.793919190138247
0.0004332140429118601
-0.0002113333836972693
-0.4483893302349984
-0.4483837305182123
1.794192688459004
0.0003113686879047325
-0.0001521740287664386
1.794395491915269
0.0002274033269570897
-0.0001113750696885966
1.794547451952207
0.0001681494601732272
-8.25212641357874e-05
1.794661809579866
0.0001251972167238483
-6.155408558686821e-05
1.794747639335039
9.317985233267965e-05
-4.588413307615717e-05
1.794811228975187
6.85885974641118e-05
-3.381802420232558e-05
1.794856930980311
4.905436011173428e-05
-2.421078417567596e-05
1.794887704020977
3.291479997777137e-05
-1.625705988052645e-05
1.794905457019657
1.894566304222214e-05
-9.362035043220874e-06
6.185759853747894e-06
-3.05743561969755e-06
1.793803360897645
-0.0002260238952338511
-0.4483380771597953
0.0002295386813718044
-0.4483425576809906
-0.4483496656707466
-0.4483433611294889
1.794112868887749
-0.000161448866994525
0.0001633095643548733
1.794339163708159
-0.0001173877786584398
0.0001184962842607165
1.794506620475779
-8.649230553811117e-05
8.718499690847433e-05
1.794631373072841
-6.421662081644289e-05
6.466123928353736e-05
1.794724262273377
-4.76881385758077e-05
4.797878907325526e-05
1.7947926592408
-3.504257702234224e-05
3.52342057503563e-05
1.794841588310956
-2.503008789563747e-05
2.515537657910016e-05
1.79487442461018
-1.677938351551945e-05
1.685788311789338e-05
1.794893327136689
-9.652430997597597e-06
9.69556660480559e-06
-3.150602034561063e-06
3.164359288699121e-06
1.79398265061975
0.0004166369786745117
-0.4484082811423897
1.79423645366893
0.0003009027767158259
1.794426443510256
0.0002206184670461543
1.79456994353022
0.000163668458389366
1.794678618801882
0.0001221927592259381
1.794760582699276
9.114417679165629e-05
1.794821534700776
6.72067878051174e-05
1.794865462972825
4.812984156260776e-05
1.794895100342262
3.232539963943491e-05
1.79491221998919
1.861797449512926e-05
6.080629024974634e-06
1.793872630794009
-0.4483635618851128
0.0002198433308890914
-0.4483683344762419
1.794160133397048
0.0001576329790857756
1.794372305408277
0.0001149077380680709
1.794530515693701
8.483691628846657e-05
1.794649103243204
6.309476024135563e-05
1.794737827218867
4.692149573740757e-05
1.794803399678752
3.451884153774638e-05
1.794850438875221
2.467801320626961e-05
1.794882069721234
1.655415811896432e-05
1.794900301675154
9.526928152446279e-06
3.11029147844586e-06
7.463306168749012e-05
-3.882448238718905e-05
-0.4482597550922947
-0.0001141306468287553
7.22287477434908e-05
7.413697812031267e-05
-0.4482889424191736
-0.0001092431512724354
-0.1119313199720366
0.000100182827041273
-1.276385440325705e-05
-0.0001088019676342903
0.1119527029670335
-0.1118896550468227
5.548459230647914e-05
-1.428082739294223e-05
0.1119164672406088
-6.801595870290053e-05
2.567917657564195e-05
0.1120435236168793
-6.596307656572807e-06
-0.1120284051258329
-3.42013599619051e-05
-0.1119482714013813
4.919390446507103e-05
9.53671671973232e-05
-6.014686895472489e-05
-0.0001036349302090399
0.1119674921288887
-0.1119097345777593
5.268619705550799e-05
5.493204883717359e-05
0.1119338317125154
-6.709664129066297e-05
-6.461873935731505e-05
2.47067413665647e-05
2.516814121753264e-05
0.1120799460434359
-4.838771188353519e-05
-0.1120359807039657
-4.545251017368086e-05
-0.0002370452289001143
0.000461350926324257
-0.1114278579118409
0.0001850081672000469
-0.0004826750482517177
0.1115012190954717
-0.0001322507344910842
-0.1116776513114361
0.0002594021777327258
0.0001021169143217615
0.1117244290464185
-0.0002760460925464877
0.0001122701393972948
-1.432074921686972e-05
-0.1119075860861658
-0.000121683276159581
0.0004415018019645621
-0.1114733613231823
-0.0002818151201426213
-0.0004624071063488809
0.1115390365187491
-0.1116999976993655
0.0002511051209686757
0.1117433546992696
-0.0001593234793207446
-0.0002673893760986392
5.506003136288179e-05
0.0001065480307926315
-6.722718049070692e-05
-0.111927091251764
-0.0001155610313819921
0.0002546354238159217
-0.1114015063238266
-0.0003023429168564752
0.0004119540181792939
0.1114787616005975
0.0001582286826344874
0.0001473813626692093
-0.1115700644620468
-0.0001901475479918631
0.1116332694217741
-0.0001786674570354047
5.920964560901705e-05
6.187904455165626e-05
-7.547331444790477e-05
-0.1118828104327205
-7.25395208499003e-05
-0.1113507654918122
0.0004309013310860988
0.0001989500257792552
0.1114369004849879
0.0001525426154829135
-0.1115407193332274
0.1116088450657093
0.0001224171468852123
-0.0001848568122147388
6.253651953230881e-05
-1.612524715919281e-05
-0.1118594877384371
-7.657858088646844e-05
-0.0002639381497109297
0.0004692566076088286
-0.02762110002295786
0.0002427398547632026
0.02763859405502159
-0.0004655523447250992
-0.0002773701247867893
0.0005384433461893001
0.0002172885309007986
-0.1113458585911838
-0.0005603610730108441
0.0278376818328537
-0.000451725019630004
-0.0278830408046054
0.0009620899950026509
0.0004275802910580334
-0.0008925862946811408
-0.4483437023307827
0.0002346158664110476
1.793813492078328
-0.4483433183045145
-0.4482711946757085
3.885024715908951e-05
7.552444275238707e-05
-0.1118826031195983
-1.453729676920373e-05
0.1119103710750879
4.225393346164793e-05
-6.709009963960751e-06
2.020373264496575e-05
-0.1120251052888808
0.1120372897428576
-0.1119032111292064
5.59015184643649e-05
0.1119281550977345
-6.826703865847605e-05
4.01077486301128e-05
2.58727266855274e-05
0.1120537001762299
2.116754155604911e-05
-4.296933482307455e-05
-0.1120330643682319
0.00016280255910263
-0.1115468592423108
-0.000195566369009463
0.1116137819882255
0.0001132224266667338
6.303065208736125e-05
-7.686320474197054e-05
-0.1118752804571175
4.511152603878947e-05
-0.1110916194964968
-0.0003125507391595005
-0.0002854503854411279
0.0002211122719672257
0.0002450100606086378
0.1112234982885187
-0.111516225323796
0.1115883563642983
0.0001172198012454702
0.000125994332854782
-1.643060748877519e-05
-0.1118513000742221
4.766408147997494e-05
0.0004464145692676054
-0.02765303017045586
0.02766707604991357
-0.0002809985919237551
-0.0004434000065291018
0.0005133568012018748
-0.000328315164927025
-0.1114008809066954
-0.0005348921776338487
0.0002071637546967563
-0.006687026150032776
0.0003275491913014386
-0.001283038248887694
-0.0008791844055162876
0.02684402813294709
-0.006699583469530841
-0.006692302128942114
-0.006703828477810234
0.0001988603045709634
0.0002026662992706519
0.0002077980259247714
0.0003188925482674834
0.0003165509216168246
0.0003214537021215048
0.0002841807915078632
-0.02760944112236327
0.02762773466929747
-0.0003021040376204744
0.0004460442684336126
0.0002996016957558007
-0.0003541289284515585
0.0004812498554767441
-0.111314872145456
0.0003476239286478979
-0.006662032352157343
-0.0003497363048466459
0.0002031841179081588
0.006668124365128062
0.0004410753541010981
-0.0003306211914498464
-0.02725985043262751
0.02731635999465728
0.0002980041338540626
-0.0004649678585332825
0.0002372976086637609
-0.0003641598692760684
0.006644196019160856
-0.006632977060181515
-0.0002491494616417575
0.0003647927632741641
0.006629759777177547
-0.0003762288842020778
0.0002262486394313439
-0.006618203635650427
0.0003757217118823603
0.0002236797074432418
-0.0003686860870147944
-0.006668280391063192
-0.000237899248715772
0.0002228608047165126
-0.000236260195647495
0.000336777984066379
0.006648366617285129
-0.0275736421434671
0.0002617118553735315
0.02759600163810254
0.000469366049082201
0.0005054249623304885
0.0002350218740716362
-0.1112531672863648
0.0002138957939936468
0.0003474062552802247
0.006638942461211675
-0.0003494905994441256
-0.02719158568444453
0.02725771083202268
0.0003150947612260028
0.0004093460446961603
-0.0003739990541429715
-0.0003386552293772027
0.0002630699542410206
0.0002945613933645697
-0.110936596560614
1.793740401843284
-0.4483172272614794
-0.4483219768606127
-0.448321324608521
-0.4483156365968883
1.794070268263361
-0.0001664794285094473
1.794309398415622
-0.0001205679303684093
1.794485208828686
-8.857316285748595e-05
1.794615514318611
-6.560482672135493e-05
1.794712146953856
-4.862510664780906e-05
1.79478307805382
-3.567652921617653e-05
1.794833700506236
-2.545312493392601e-05
1.794867615933044
-1.704854309370063e-05
1.794887118407731
-9.801877552302067e-06
-3.19851665751459e-06
1.79411951771481
1.794343719333323
1.794509847056608
1.794633728533636
1.794726036945717
1.79479404474132
1.794842716135478
1.794875389460748
1.794894201859916
-3.95677087670404e-05
-0.448242951613091
3.992512219635693e-05
9.725362514717444e-05
-0.1119416519475838
3.753917574744759e-05
-0.0001056615712065895
0.111961714622276
0.1120115776813444
7.056605768129523e-05
-3.562687299663017e-05
-0.1119964795535813
-7.7111255228246e-05
2.707394278544939e-05
0.1120052699077903
7.223549404083834e-05
-0.1119894736326419
-9.154824234852397e-06
-7.887694494979058e-05
5.060783346699798e-05
0.0001950579248316542
-0.0001010539220807321
0.4482381182295896
-0.1120481382783004
-0.1120341416468796
-0.1120322381298855
-0.1120444410038566
-4.349446155479247e-05
2.56863222639972e-05
3.400698869761298e-05
6.388701952619869e-05
-3.199233822304145e-05
0.1120250256760862
-6.965517069724778e-05
2.431249461291903e-05
6.988506054331212e-05
0.4482288191895201
-0.1120413611937539
-0.1120313379430909
-0.1120323159674777
-0.1120404623555393
8.245044787369427e-05
3.193290167094465e-05
2.57846206267523e-05
6.500369066125357e-05
-8.199686135681473e-06
0.112019415409029
-7.094950579862876e-05
-0.1119018954501776
5.378016578766356e-05
4.195404460975779e-05
0.1119270397944625
-6.594650592076398e-05
0.1119877451716054
-3.908334312644453e-05
3.842262794123839e-05
-0.1119696860760042
2.980567308288814e-05
-4.720405350600027e-05
0.1119808883514297
3.951458058332328e-05
-0.1119617334970071
-1.012303808380409e-05
-4.854639692011665e-05
-0.1119192326596803
9.046471013286619e-05
-1.320448842706709e-05
0.1119421552649085
-5.08656740795127e-05
-0.1119301185413875
8.778177810447752e-05
3.882299032564862e-05
0.1119516330720973
0.112004898643189
-3.659733474971212e-05
6.320183730918067e-05
-0.1119887146520719
2.777756397346101e-05
0.1119980381044101
6.494193842332407e-05
-0.1119813203916227
-9.424157200691244e-06
2.55018095668379e-05
0.1120531089881174
2.180749975957672e-05
-0.1120323165998229
-4.293355635986989e-05
-3.504774747452433e-05
3.458098029495958e-05
0.1120038938784482
2.679217517796649e-05
-4.2474114916566e-05
3.553180849430606e-05
0.1119981319794023
-9.095590778392674e-06
-4.367984578631932e-05
-0.0001543291996579446
0.1119397554136017
0.0001714003895630786
-0.1118862389276289
0.0001244702489504594
-3.292756342343495e-05
5.647700450772673e-05
0.1120205529145997
2.468330696475566e-05
0.1120366641689591
6.365897775911932e-05
-1.220691471196793e-05
-0.1120182311714579
5.840073845396671e-05
-8.441711997386663e-06
0.1120130827685353
0.1120156789623818
6.947096941472953e-05
-0.1120009500785626
-7.601107310390039e-05
-4.381565316347045e-05
0.0001964395435678434
0.4482593996309721
-0.1120432520623098
-0.1120447349900896
-0.1120460239166077
-0.1120457609831073
6.2831692882348e-05
0.1120296544053163
-6.908691705255609e-05
-3.971255703394405e-05
0.1119922990176825
3.768269205908624e-05
-0.1119748639782232
-4.788453273629761e-05
-4.631654197179007e-05
-0.1119370905377872
8.605834251679395e-05
-6.217661039754805e-05
0.1119577102985945
0.1120090396858506
6.219538286152091e-05
-0.1119934129203024
-4.494851381922378e-05
3.383673128620757e-05
0.1120078919133647
-4.292685951146069e-05
-4.155051499044052e-05
0.4482240765437293
-6.871826786785523e-05
-1.490398386157221e-06
0.0001956509557135902
3.876028220160116e-05
-1.12827781651309e-05
-6.60417098991839e-05
2.639265537815461e-05
-0.1120379929738813
-0.1120391299635786
-0.1120224725426026
-0.1120432313797599
5.562248096452182e-05
0.1120237803282453
-4.045899389436417e-05
0.0004936495634084445
-0.1113530289067135
-6.457286854087281e-05
-0.000515534758124169
0.1114394869699612
-0.000152053991874311
0.0002977618066256438
-0.1116253317099662
0.0001176703093576364
-0.0003156977256363617
0.111641832960248
0.0003140812822681228
-0.1115826189240083
-4.067425442692508e-05
-0.000332621064087075
0.0002725898715006919
-3.520550144862969e-05
0.1116942388500064
-0.0002897902598501211
0.1118374650932763
-8.902655103973875e-05
0.0001752990093792377
-0.1118038056605357
6.83677864127954e-05
-0.0001882996774990603
0.1118188700318106
0.0001825211897012588
-0.1117820481826852
-2.342022014101298e-05
-0.0001959228186890964
0.0001087870313436049
4.20621234722259e-05
-0.1119194829954493
-0.0001179580757332289
-7.85754755739614e-05
0.0001548778819756295
0.1118677127079142
6.025224414045563e-05
-0.0001668022652213245
0.0001608537482118422
0.1118517534202965
-2.060433785720364e-05
-0.0001731327989290053
0.0002875406102420475
-0.1116518363599796
-0.0001826713541673738
-0.0003050845874110949
0.1118492582938657
0.0001707055248224699
-0.1118175566270914
-0.0001079862074941931
-0.000183447535179404
0.000151065778036724
0.1118778660023309
-9.548776004564293e-05
-0.0001627612021062029
0.0002721137068879323
0.0003007318412261146
-0.1112097097484872
-0.0003267989599969737
-0.000356012663011804
0.1113196758233794
0.0001705865824044372
0.0001842341892443083
-0.1114978111924758
-0.0002207037098329123
-0.0002063703313871234
0.1116635622100883
0.0001611119650670355
-0.1116089134778724
0.000265169741980737
-0.0001933898290502397
0.1117806292276482
0.0001032079387579543
9.750458974977487e-05
-0.1117375400768656
-0.0001249767805475699
-0.0001188248987403216
0.0001396035447594652
0.0002308137212033524
0.1117123073087001
-0.0001680572436571732
0.1118296185470813
9.309727411485677e-05
0.000155616563700612
-0.111794759906493
-0.0001128669536075845
9.029786799653868e-05
8.562807438572421e-05
0.1118187787429656
-0.000109569560498457
-0.0001045058972586331
5.7044222469562e-05
9.632104197176976e-05
-6.962961887034627e-05
-0.1119142781526952
8.195374304649027e-05
0.0001373917277199406
0.1118608876456886
-9.954879139008294e-05
-0.1111609589923894
-0.0003695229838375272
0.0002107205493944743
0.1112793243945323
0.0003312285125208114
-0.1110817482399682
-7.283690490393152e-05
-0.0003913417841105044
0.1112147020034673
0.0001899501847032798
-0.1114700395002242
-0.0002274465254695974
0.0001312631811239626
-0.1114260292533853
-4.506255316521633e-05
-0.0002380675476990336
0.1115102133632355
0.0001989471385077349
-0.1111448243404584
-0.0003423837292944111
0.0002356391287464804
0.1112668503967482
-0.1112669214172289
-6.955805982023621e-05
0.0004617386623728709
0.1113683903779878
0.0003069947813345722
-0.1110360933523874
-8.266463940942243e-05
-0.0003680359770118562
0.1111797991874769
0.0001770366249126125
-0.1114623363982483
0.0001428980235039478
-0.0002140833941411099
0.1114934952733488
0.0001873496195392883
-0.1114048924828061
-4.952568885320549e-05
-0.0002264267212306126
0.1116392916825379
-0.1115799605653773
0.0002747779844952145
0.0001247646699876424
0.1116003415494715
-0.1115332342018593
0.0002901354878111397
-4.316155319703792e-05
0.111766061248054
0.0001002610462430554
-0.1117203259394346
7.936454088586224e-05
-0.0001221529570516467
0.0001607620622902433
-4.230125385147021e-05
0.1115697497461152
-0.0001947152812213271
0.1117430370254047
0.0001046038804215013
-2.722970456312067e-05
-0.111693016620432
-0.0001273945808313858
0.0002385796858897606
0.0001078580774884589
0.1116918596415726
0.0002509349668714357
-3.721074121161671e-05
0.1116592071952969
0.1118170439658739
0.0001598686390650989
-0.1117800388425261
7.152252101130711e-05
0.1117972025903207
0.0001665585432088504
-0.1117567275852158
-2.451235870083322e-05
6.050914236538269e-05
4.731239450013416e-05
-0.1118737204791627
-7.411746347835237e-05
8.789253323493518e-05
0.11180638855138
6.93231504856484e-05
-0.0001072451191393427
9.144941367236395e-05
0.111786872842762
-2.37390518196886e-05
-0.0001115461792676495
0.0001015619755477815
-1.484482235212176e-05
-0.1118936796736536
9.837028913073576e-05
4.358834355679123e-05
-0.1119062459204807
0.0001409093409337067
0.1118501012993578
6.286495049323501e-05
0.0001464270010463622
0.1118331360056448
-2.150666827890987e-05
-0.000417439203409809
0.0008883609227389906
0.0003932828479275385
0.02780373862191301
-0.0008302613563931045
-0.02718640018661193
0.001458958592213648
-0.000112474882046118
-0.001375749255753633
0.02721566573219801
-0.0002922344483549311
0.00051671403605627
-0.02760426645386616
0.0002696407275408119
-0.0005109538843455021
0.02748360055320018
0.0006290733258191131
-0.0274476425230609
-4.605740954541984e-05
-0.0006189739464181667
0.0005641725085088392
-4.09839390141889e-05
0.02751766914880923
-0.0005572571651227613
0.02775920259356465
-0.0001336648502604464
0.0002476604886528043
-0.02774095683709346
0.00012378969477303
-0.0002560310896377368
0.02770304283707252
0.0002798943944394041
-0.02768209441974179
-1.891911081200764e-05
-0.0002819237009613204
0.0005797570525553061
-7.608025907044022e-05
-0.1112547824462152
-0.0006019232540784828
-0.0004597588260972367
0.0002013452521120937
0.1111510963985356
0.0003653142291881028
-0.0009017731785441322
-0.02775370274789613
-0.02776330493819155
-0.02776591892590071
0.0002514300240815046
0.000221582374382856
0.0002128929318759541
0.0002553379679342097
0.02772301935032623
-1.754338057960373e-05
-0.0002577711006033998
-0.001151483297927235
-0.0007690790181930248
0.02746837832792844
-0.02748832507263498
0.00119768701427026
0.0007428220465632571
-0.001080985360450001
0.001237615704673861
-0.0270480943454442
-0.001243483308675289
0.001057606359434168
0.02707734095046542
0.0001940006892785237
0.0003920532557300123
0.006643959108486751
-0.006609171152197232
-0.0002174474875550872
-0.0004033944137432069
-0.001448913687108098
0.0005368449886559947
-0.0006274004076687435
-0.02717257228407514
0.001521667184640922
0.0271903742055536
0.001667009656812019
-0.02716874133209693
-0.0001288172721279697
-0.001555851239213936
-0.0004640148530775034
0.001531006328850063
0.02729184317124718
-0.02728910310140185
0.0003657020128924602
-0.001435433558510958
0.02764778980148589
-0.02768535061125949
0.001316870562486335
-8.002084134169623e-05
-0.001199288911373317
-0.0002932880084797389
0.02769720267429511
-0.02773743942186842
0.001226225592069892
0.0002290661647965415
-0.001121767000809963
0.02757930108399772
-0.001094472442161731
-0.02760984644005812
0.0006508817464073009
-0.000677347246194835
0.02735491273932876
-0.0005447253166827079
-0.02736068630898872
-0.001362429653919945
0.02772717071571303
-0.0003483129637427948
-0.02776882828618346
0.001170758505411163
-0.001074075979729692
0.0275609203655398
-0.02759058403314828
-0.0007775010273416041
0.001086110154037469
-0.001048024477351384
0.0007529094175778907
-0.02784655469463979
0.0007815091851048688
0.02780050462970362
-0.0007624452484206954
-0.0007259232893256033
0.001113476880486035
-0.02722811310871168
-0.001121231666978129
-0.001077390299121475
0.02723227283380239
0.0007833826712139244
-0.02765935128255876
-0.0007931091567965555
0.001014392619269713
0.02761948314664619
-0.0009647979977687845
0.006613435591140847
0.0004053682105728812
-0.006587521605030772
-0.0004163508699051742
0.0001790693624697505
-0.0269238633725024
-0.0001499743368361516
0.001762696259368732
0.02697815110675668
-0.02708013100895392
0.001612365555638835
0.000424477981145322
0.02711113878959973
0.0004502691412284855
0.006545698640310019
-0.006508502818165255
-2.795801001047173e-05
-0.0004595069533637649
-0.1118951664735999
4.270077574589202e-05
0.1119212004385126
4.094694344034845e-05
0.1119839035239591
-3.973907061031152e-05
-0.1119652526980719
3.029170888364763e-05
2.921916372146923e-05
0.1119769055793407
-0.1119571447715479
-1.028302218860506e-05
3.003679489749036e-05
0.1120376378595075
2.164500165040298e-05
2.121722550544819e-05
-0.1120291255503547
-3.57072972286947e-05
0.1120006502243864
2.722654576600768e-05
2.63150312539458e-05
0.1119946713185875
-9.228879860937952e-06
2.699494901305635e-05
0.1119884530569104
-0.1119705009931264
-4.867671043395918e-05
2.866826800492657e-05
0.112004531056102
-4.376483555912362e-05
2.581627036655859e-05
0.1117687527122833
0.0001056506967369586
-0.1117235962063692
-0.0001279000356898679
7.459742272340237e-05
9.230462011928579e-05
0.1118086187602589
-0.000111977552750622
6.543495894698948e-05
-0.111005922594992
-7.640739136448501e-05
0.1111541393611253
0.0002594231686369453
-0.1109761335954377
-8.593186794356025e-05
0.0002374965602683082
0.1111315636844345
-0.1114328890155925
0.000136268242617315
0.0001473822588212391
0.1114669077160952
-0.1113727124998158
-5.109613368189497e-05
0.0001442505369269552
0.1117536927350473
-0.1117057629544123
8.126039564437798e-05
7.672156662569249e-05
-4.355139306623341e-05
0.1115476412202749
0.0001235799511246415
0.111729882558655
-2.78870633218614e-05
-0.1116774604912116
8.006887623795988e-05
4.820012519494816e-05
-0.1118659352993721
4.610849487463047e-05
0.1117958351328827
7.087732266856982e-05
6.717743274562517e-05
0.1117756935093865
-2.42766449372934e-05
6.991510781047798e-05
-0.0278763867220619
0.0008231464534726561
0.02784104751566878
-0.0004330809842201916
-0.0007721654663230756
0.0004900032860804223
-0.02764007351980441
-0.0003100313455185981
-0.0004851630395963949
0.02778740078561885
0.0002383690834210763
-0.02775617667967395
-0.0001529946435604758
-0.0002502633960797899
0.0008319218215307367
0.111234912117193
-0.0005320106302224132
-0.0008454825963850476
-0.02780079995475888
-0.02780088153051882
-0.02776001726740587
0.0006870680696983378
-0.0009540010981749017
-0.0007001416850741053
0.0009830774003199414
0.02754491767869377
0.0003159056593051392
-0.02759178411569296
-0.0003345870750845781
0.0004910276951565761
0.02729775413471804
0.0003685248488875301
0.0004816896067575363
-0.02724181459699656
-0.0004003674885330944
-0.0005057865048370533
0.02775162854775535
0.0001418988481305007
-0.02773411959782291
-0.0001583601252737937
0.0002373214106067065
0.0004243533719587552
-0.000359524085918347
0.02734994419671799
-0.0004476405395853967
0.02762259475936478
0.000161282803405338
0.0001892732736362746
-0.0001767416991657549
-0.02759202402747246
-0.0002043851097659342
0.0003208644629666449
0.0003582329657905687
-0.0003846002315575809
-0.0004222749230008958
-0.1110819320226888
0.0001074666996093224
0.1111059647920256
-0.0005894685304330902
-0.02775236004836914
-0.02773937818260855
-0.02775028071629676
0.0001560238941743768
0.0001307533714326424
0.0001181928301522955
0.0002324185424771689
0.0002026615368781719
0.0001743610073087123
0.0001871951728437838
0.0001461533068937063
0.0001700960502924176
0.02765173918479749
-0.0001607570570703161
-0.0001846367255712198
0.0005015713147445964
-0.02719902208071162
0.0003324043543520129
-0.0005262791722185938
0.02711543984841098
0.0005769842950575756
-0.02703623116892877
-5.215085445623502e-05
-0.0006040355862540351
0.02760746526251486
0.0001947160680425514
-0.0275753901954358
0.0001445540722400797
-0.0002100624039836788
0.0005045380081142359
-4.668873848983234e-05
0.02718833063498746
-0.0005307340140522295
0.02755149548890738
0.0002153210520350276
-2.229295710061788e-05
-0.02751261639305405
-0.0002319040773624135
-0.0004392571565215353
0.0002495081205240459
-0.1110243445476629
0.0003984248204223648
-8.651328513518498e-05
-0.0004680214582482626
-0.1109256334834594
0.000174954214570688
0.02763683812010285
0.0001310887716101583
-0.0001892625369273348
0.0001928980827360316
0.02758704497586237
-2.01934857849822e-05
-0.0002082512892464395
-0.001191016561342897
0.02693663820248583
0.000309218191479018
0.0003039456667326269
0.000301346360650935
0.0002986821494919802
-0.006713498526934886
-0.006732096531245253
-0.006721147246350656
-0.006725354003683235
0.0002994375777981419
0.0002913230705030943
0.0002896684007226927
0.0002904689542925069
0.0002058090345501896
0.006598176426962248
-0.00657831387173425
-0.0002274041564337926
0.0003937858223463065
0.0003184044825673864
0.0002765755159727136
0.006418192488084882
-0.0002989771337320414
-0.006381004519294609
-0.0003331908335970728
0.0001287139123107832
0.006557878694948979
-0.000433444341718965
-0.0001440056581114017
-0.006541984505243642
0.0004328418978155349
0.0003302039829896325
0.0001693262288655061
0.006281974438877287
-0.0003567414843870407
-0.006234944059210628
-0.0001898191071343985
0.0002851606518464047
0.00639622764744324
-0.0003082047674198288
-0.006357221514000337
0.0003024424646756505
0.02737274033795575
0.001360149406567559
-0.02740022719462053
-0.0006878692981069028
0.0006336548349516465
-0.001278448086741532
0.02711521554517949
0.0010893587548719
-0.00118177397611453
-0.006779130510172121
-0.006774241183347569
-0.006778093992531794
-0.006768874318866696
0.02755561286204889
0.0007624786930655301
-0.02759257627693075
0.001104612496888799
-0.00104674510393415
-0.001040608695921684
0.001075605838046621
0.0006585461719637969
0.0274619030834071
0.0003664606850502443
-0.0006681252694530558
-0.00662497259357787
-0.006607187645504353
-0.00661719125392024
-0.001471284888792928
0.00053060828177679
0.02659964930501888
0.0003743208160504768
0.0003671507886693817
0.0003640073658109826
-0.0275513605510378
0.0002919308469963672
0.0005184072559008784
0.02741869818562563
-0.0273735111234238
-5.013887526877728e-05
0.0006340251388700486
0.02723305489458534
0.0003909597523631457
-0.02716641142021623
-0.000424601145871017
0.0004486875258513143
-0.006577097465223013
-0.000184651215277009
0.000172305642421433
0.0003750015030344002
0.006580902220075946
0.02694644998442756
0.0004867016452727325
-0.0005280253710305426
-7.924034477313016e-05
-0.02682588591389579
-4.440045112283013e-05
0.02746066611366276
0.0005666050315752153
0.02773556699839185
-0.02771829004914512
0.000128788088793497
0.0002434942986986085
0.02767848640398611
-0.02765452474079112
-2.026814752653249e-05
0.0002762008787694084
-0.000379912771415256
0.02729424349812598
0.0003935869402727741
0.02760095480094425
0.0001674245602705307
-0.0001833243711272517
-0.02756772871219941
0.0001719469957262713
0.0004289938168644839
-0.0004657994986189153
-6.844960244985915e-05
0.02705170526859199
0.02751533452063763
0.0001918113110441549
-0.0002097461756762978
-2.782701119373285e-05
-0.02746957264480725
-0.0004043485079856953
0.0002822768781988861
-0.1110031749743472
-8.253979430125321e-05
0.0005449749631283887
-0.111149599533598
0.0003669545382286578
-9.959463121315067e-05
-0.0004382698025496785
-0.1108651834568669
0.02770574208283971
0.0001167773176133979
0.0002218595495927791
0.02770009257905703
-1.855148152011975e-05
0.0002522832743579526
0.0001516353556221643
0.0276312734133259
-0.0001662314976902106
0.0001543735799438366
0.0001727653083479454
0.0275565043783222
-0.0001891079978051322
-2.482716825322268e-05
-0.0001630694518410536
-0.006235348547454892
-0.0003024277359183247
0.0001431656877324254
0.000273874607553226
0.006283805439928704
-0.02711929497035584
0.0003527243350395562
0.000467516017854199
0.02703369004965336
-0.02694022335399066
-5.536765994491309e-05
0.0005388918328923484
-0.006246355676806978
-0.0002986222494498076
0.0002704266288514793
-0.000182694808367972
0.006294176653900513
0.02688874199084478
-8.274072779509464e-05
-0.02675869980641775
0.0004394001886034445
0.0266701451106063
-0.02650556961473034
-9.580634168805663e-05
-6.876309308094366e-05
0.02758516559585901
-0.02755010897184037
0.0001501048429624391
0.0001769791612968171
-4.939601615617469e-05
0.0271184884277023
0.0004691417654255618
0.02752619296625614
-2.316824866137289e-05
-0.02748360558677608
0.0001959051327964466
-7.133635798816112e-05
0.02700197234993934
0.0003870998156865388
0.02749628851653648
-2.866733139591115e-05
-0.02744788202645903
0.0001720721523346836
-8.218389900556515e-05
-6.065946525449405e-05
0.0268129944554105
-3.179091374253622e-05
-2.656545737602982e-05
-0.02736537794854782
0.02742373787563508
-9.118303747415554e-05
0.0003133413280542449
-0.1108296507292064
-0.0001039117588050415
0.0002845096930589276
-0.1107897769915142
0.02761699209394423
0.0001359596962671527
0.0001588033757865898
0.02756490382301525
-2.094725624558363e-05
0.0001751373699242595
0.02753974486312316
-2.554352054302034e-05
0.0001548524822619046
-0.006555894246610429
0.0001871337921026074
0.0004028402343391381
0.006499156793638902
-0.006467715229825555
-2.957334565899403e-05
0.0004484009230578715
0.0003280884619688439
0.006388985562503685
-0.006347908391909268
-0.0003434098286203536
0.000250819712011369
0.0003655944461210309
0.00627181177917347
-0.006214022290078556
-0.0003830475309245448
-4.033640429209519e-05
0.0001740778262445008
-0.006194648507271098
0.0002996134748149144
-0.0001951944876574945
0.0001922359396641596
0.006103717447861904
-4.826405224785106e-05
-0.006031920047957772
-0.0002157692873211445
0.006365931914474226
-0.006322885108703944
0.0003115557258824362
0.0002586465821222998
0.006244390054154661
0.0003467954393597177
-0.006183974046215797
-4.161700119967479e-05
0.00655098864226452
-0.0004389251304535038
0.0001131544750778859
-0.006534821166935154
0.0004383170923330431
0.0003344134702970099
0.006271423595004263
-0.0003612898192976673
-0.006223797934666108
0.0001485769175007641
-0.006183000727835755
0.0001527118033975278
0.0003034316734565393
0.006090919598821181
-4.887766421608553e-05
0.0001684880904467264
-0.006018294085412955
-0.02792231911570149
0.0008867311996801419
-0.0004663148298263763
-0.0008262089959668281
-0.0003760345240124035
0.0002146957909833887
-0.006653242795941704
4.334504593921046e-05
0.4483168079994062
0.0001660396837099129
-8.405401267357679e-05
0.4483088392023742