/*--------------------------------*- C++ -*----------------------------------*\
  =========                 |
  \\      /  F ield         | OpenFOAM: The Open Source CFD Toolbox
   \\    /   O peration     | Website:  https://openfoam.org
    \\  /    A nd           | Version:  7
     \\/     M anipulation  |
\*---------------------------------------------------------------------------*/
FoamFile
{
    version     2.0;
    format      ascii;
    class       volScalarField;
    location    "0";
    object      Phi;
}
// * * * * * * * * * * * * * * * * * * * * * * * * * * * * * * * * * * * * * //

dimensions      [0 2 -1 0 0 0 0];

internalField   nonuniform List<scalar> 
12670
(
13.99508419692111
12.66273042175212
11.33017351785684
9.997465990704919
8.664645601987097
7.331740279222208
5.99877121022006
4.665754912837957
3.332704672322086
1.999631576497489
0.6665452954218829
13.9947783328684
12.66251058472161
11.33001296326652
9.997347271387772
8.664557208434941
7.331674491033366
5.998722784305126
4.665720278768186
3.332681433338306
1.999618200206082
0.6665409280621205
13.99525256692461
12.66285165930251
11.33026225074204
9.997531735668101
8.664694642330002
7.331776835262295
5.99879815315143
4.665774201649529
3.332717624375284
1.999639035261668
0.666547731290917
13.99495840685087
12.6626392115662
11.33010648649677
9.997416180092742
8.664608370028452
7.331712484330581
5.998750702841768
4.665740220321736
3.332694801528469
1.999625890329679
0.6665434381571552
14.99364982126002
14.99382981479599
18.42598746720962
18.4250073418228
16.15457485545382
18.42639549407266
18.42546331532919
16.1547922027563
22.31087771592677
21.01794109500029
18.75020232505965
22.31165250450264
21.01837336001018
18.75065945261459
22.31037367169674
21.01586152192571
18.74961564996822
22.30954138910541
21.01534434730792
18.74910151506187
24.96417758672036
22.6336342698776
26.41995490113437
13.99480318987846
14.99372782282288
18.42484662783129
16.15450047439063
18.42531070703427
16.154720638402
21.01543462418557
18.74944414616715
22.30534179038492
21.01490249973203
18.7489203747984
24.96590296534793
22.63454086143826
26.20155061610463
24.96331683732903
22.63305389691019
26.23440020633277
24.94464351838681
26.30941873905401
26.30666938974395
26.31417955624541
26.23243759963475
24.96145913164878
22.63207464087423
26.22985549847654
24.94176018632183
22.62712441237474
13.99461627064423
12.66239528253782
11.32992930080375
9.997285715773582
8.664511555370312
7.331640616353838
5.998697907740893
4.665702518204894
3.332669531091518
1.999611354801729
0.6665386939153474
12.66252791724734
11.33002535767135
9.99735628230443
8.66456382295204
7.331679356136611
5.998726331349341
4.665722796793447
3.332683113722005
1.999619163989885
0.6665412421841165
14.9935444342298
18.42623470249988
17.45317259098409
17.45299465220068
16.31749553226356
17.12872526252778
16.31741282574507
17.12856559453674
18.42528376848036
17.45248770944452
17.45229148722135
18.42569728246922
18.42595300234428
17.45296819274804
17.45278541835587
16.15470994002367
17.12810941308539
17.12793305199652
16.15545200773729
17.12854021047122
16.15496783186953
17.12837730798448
17.45328903835708
16.31766068096688
17.12882983032812
17.4526154543812
18.42611925814008
17.45308781210085
17.12822396757136
16.31737618231757
17.12864783507976
22.30964703226676
21.34142118845408
21.3406413589546
21.01726501520771
20.04674315191373
20.04629160654236
18.7504794874515
19.72280014957459
19.72240246576057
21.34191818093247
20.04703413754125
19.7230569755866
22.307151562137
21.33902998450543
21.3410853046821
20.04534423866505
21.01764602103909
20.04653968015901
19.72156586435048
18.7503508307323
19.72261940574677
22.30636337071014
22.30512581359562
21.33853587164605
21.33776695388688
22.30616861219103
22.30821715077218
22.304598145868
21.33842781020416
21.33747983495311
21.3405587059797
21.33973160627488
20.04500690079815
21.01453315898894
20.04448241623972
21.01718972317513
21.01647544454541
20.04623538926588
20.04576292447564
18.74941339668087
19.72127072338999
19.72081292968338
18.74987712879381
18.7501643801883
19.72235153777852
19.72193654455885
26.25868831914567
26.22487477529689
25.1241894740918
25.11655959013508
24.95734425924236
23.84127205499543
23.83793259312964
22.63218684013306
23.60036207751713
23.67744600018433
26.3953989537352
26.37413382594084
26.31253410360921
26.38188948894686
26.38236708901814
26.38725105262549
26.40734454829811
26.41039393074374
26.40207031417212
26.39028487752289
26.41231156006797
26.40042664357073
26.41547185603653
26.38120016047405
26.40176065514008
26.30999776337615
26.37270714390288
26.37837966579526
26.3002685364409
18.42512799144842
17.45237641631531
17.45217703119484
16.1546360727132
17.12800924748729
17.12783013227536
17.45250630451455
17.12812595772901
20.04506181157749
19.72131783820398
22.30404318447609
22.30370891960479
21.33791501446303
21.33693716708961
20.04471648949179
21.01406750336023
20.04417942568953
18.74923812882022
19.72101613812131
19.72054804172653
26.26141726293293
25.12609982808011
23.84214582917116
23.6018648113588
26.24076353023785
25.12326118410355
25.10469755556333
23.84076493239917
24.94655884132798
23.83224572122264
22.62927623864979
23.59945510676389
23.67222517227102
25.1025626526919
25.09453025289426
23.83131139325582
24.93744770441913
23.82784654068077
22.62834683813636
22.62687984298037
23.67137849104378
23.66823787715725
26.36696420937943
26.30799163097182
26.2783352867375
26.29154477563173
26.25455638654871
26.27464633671941
26.3845891675962
26.37474971257996
26.3972224260226
26.23627202952253
26.1962185209669
25.12119609049541
25.11291528360721
25.10154872679091
26.22909738680706
25.08866079465248
24.95407593934959
23.83983733214653
23.83631113587914
24.94378482173641
23.83100843186302
24.93255722082317
23.8262578905201
22.62810534476329
22.63050754384157
22.62621993350916
23.67916232334044
23.67596680089105
23.67111324542907
23.66685871122925
26.17597820880677
25.09928385613512
25.09075847674598
26.17786757955128
25.08584128105689
25.07521958640893
23.83003852406273
24.93414951318189
23.82643897562003
24.93007201484498
23.82514670774454
24.92071667550825
23.821019262838
22.62557758095815
22.62515703070874
23.67023480612614
23.66697689222728
23.66585786392161
26.30530096422006
26.29505125181907
26.27471998241949
26.26090401503768
26.2502400985957
26.23372352705449
26.27091884356389
26.25666832418923
26.29005346098777
26.25259451864041
26.24822317788125
26.23149623018841
26.42290807290897
26.3115879720105
15.66000036149178
15.65993129520978
14.9940655803786
14.99400835103649
14.99371168444624
15.65949985534936
15.65957473660549
15.65976590200736
15.65969156444031
14.99387057119812
14.99381098160441
15.66013429370977
14.99417491614133
15.65972320406585
15.65990160850143
14.9939840736596
18.10202917100906
18.426029186204
18.42630261773656
18.10171067240855
18.10174795370774
18.42634279442895
18.10199318915425
18.10105164809827
18.42505401908337
18.10083550567759
18.42520435356525
18.42525001254892
18.10087698400627
18.10101103403575
16.47920010682139
16.15459641565917
16.47907092547347
16.15467392146198
16.15469752148369
16.4790952163342
16.47917566402711
18.10251608593418
18.42659208569843
18.42669567800844
18.10207586169933
18.10234577191898
18.10225223416781
18.42688513149493
18.1015999496516
18.10124118209293
18.42568262246894
18.42565048685008
18.10140835591977
18.42586514758754
18.10143671501598
16.47948099563255
16.15495035926739
16.47931021582986
16.15492385830301
16.15542838064761
16.47940966915238
16.47942732139491
21.98863719829715
22.31027301185799
22.31227580917038
21.9879086675126
21.98911769035701
21.9873911127572
22.31171757798843
20.69475221359595
21.01760732317551
20.69432550741757
21.01874067678561
21.01842646875238
20.69502706972422
20.69403464792606
19.07479420016785
18.75024913280575
19.07434843648165
18.75055478696301
18.75059976373899
19.07440110856419
19.07474370701488
21.99047465559833
22.31257362464749
22.31299189060407
21.98857391596578
21.98973591226865
21.98936788831064
22.31384441192291
20.69581527065083
20.69470295329506
21.0188941129998
21.01914786716855
20.69538394956511
21.0196388081308
20.69515880734432
19.07547261397625
18.75087918642516
19.07486206175763
18.75099418111929
18.75120550218647
19.07523627574653
19.07510834683919
21.98734229614524
22.31136188748593
22.30918042557499
21.98746967257794
21.9883173427778
21.98644371707936
22.3102325982853
20.69348069222076
21.01648302419585
20.69250998291092
21.01637904145644
21.0169792955858
20.69295992773452
20.6930479794831
19.07419832894443
18.74986233648487
19.07368999742851
18.74982576444241
18.75006693160198
19.07392655338417
19.07396836127384
21.9851012570547
22.30829326111175
22.3088911157046
21.98675864287328
21.98620496704802
21.98568923551858
22.30759953502436
20.69219466887501
20.6920635547038
21.01494422363819
21.01587979462606
20.6925279851307
21.0154936915866
20.69171894285247
19.07341713716126
18.74915422085704
19.07310830713183
18.74932332888237
18.74937482309885
19.07316803266424
19.07335886370701
24.48713183151645
24.95993904949179
24.48352956309582
24.97213292803172
24.96882734324849
24.48963997935822
24.48042684661525
22.95728134821613
22.63292405658938
22.95615330855386
22.6352573847107
22.63460589158382
22.95804535969873
22.95531441689518
26.64984186895924
26.64839193576814
26.69656959408263
26.63450968050287
26.71143642347692
26.70352072454422
26.71402816961487
26.7004061118659
26.57194442477737
26.58148429258223
26.41438071893202
26.41715950405484
26.41115618472626
26.57845885881599
26.57546817336114
26.71286555405969
26.65298344961129
26.70480571705861
26.70580002567878
26.62570859581111
26.61381331628933
26.63289286457631
26.60488484375816
15.65959484939688
14.99367296359457
15.65953011844271
18.10062631776517
18.42489414336877
18.10069244954483
18.42472423712747
18.10073463848576
18.42477239527198
18.10058358512977
16.47894767350558
16.15452240296645
16.15444195323401
16.47898698626187
16.47901145015843
16.15446379071064
16.47892309142693
18.10120271370128
18.10110501640635
18.42553383964865
18.42519453286582
18.10130380081941
18.10100143218339
18.42542059998545
16.4792879517722
16.15465932552301
16.15486108480492
16.47923020415826
16.47935329264527
16.15477517011205
16.47916689409221
20.69241876623765
21.01607383801496
20.69213953153002
21.0151066695704
20.6926918569577
21.01575960000239
20.69185536494526
19.07363721834323
18.74969537557684
19.07349668266362
18.74931347829862
19.07378047403794
18.74956819200915
19.07334926151978
21.98194557160249
22.30470132725231
22.30454096854692
21.98317717465268
21.98263529872769
21.98250579260869
22.30387679859164
20.69102629668255
20.69168105371131
21.01456296651464
21.01449068393572
20.69132704420795
20.6913875713366
21.01414209877747
19.07280901048167
18.74897407867185
19.07290345087546
18.74878231332101
19.07296437379393
18.74883678300557
19.07274716801064
24.49255077745347
24.48481099802408
24.97164376851207
24.97348905771138
24.49068153662251
24.97804685197979
24.48915643728959
22.96016572933769
22.63561396820471
22.95721927509789
22.63609020429827
22.63707760052302
22.95901795021196
22.958474784695
26.22601604283558
26.21766849982151
26.23758993216694
25.75611666015416
25.73380280705079
25.75041363246029
25.7452805956857
24.64458076076411
24.48284432553805
24.96732332936009
24.95565887909035
24.64636972584046
24.96311132267044
24.47710483081185
22.95531271671863
22.63421137664271
22.63165993181131
22.95548318174441
22.63289833179414
22.95684548890003
22.95384755489044
26.21960521791916
26.22079583901774
25.90143435853714
25.73046831705509
25.90366184931653
25.72254497391363
26.21465391897287
24.63311531886152
24.46901770885561
24.94010715530818
24.95262331861041
24.63413933151804
24.95032182414892
24.46572657011562
26.53392601904876
26.53958557432076
26.31844451863036
26.29528247665967
26.52132234385503
26.55029261424103
26.30560492728076
26.50713786085975
26.29923776039715
26.53630194312068
26.29211106879966
26.51746700667788
26.28356847276254
26.52747656134584
26.57160361574869
26.32845472961313
26.54564388432422
26.32276552630819
26.37144141833368
26.5557373570241
26.56322164061526
26.2109175167753
26.19251666413675
26.20397212123888
25.72913171680489
25.72840105582593
25.74079581015678
25.71424708924409
24.47153702979829
24.95688437279422
24.48147861032
24.95339332743051
24.4781665236949
24.47548444327363
24.94777777891041
22.9516135804373
22.63061065132782
22.63130646568677
22.95432519439207
22.62978712185635
22.95341173534706
22.9525980827744
26.21556368610482
26.18177128737079
26.2005375995764
25.65991000583373
25.7247983020535
25.71623780239872
25.70993271081203
24.45828235908002
24.46702030694442
24.9369628849044
24.9345609121179
24.46357118191777
24.4621281044535
24.92909426555843
22.94633606083192
22.6263624166452
22.62616163070019
22.94845800241236
22.62536851172975
22.94754490357677
22.94729040057369
26.57059832031869
26.56562277664498
26.58248074217429
26.55220459721775
26.53189619780645
26.56050601061948
26.54691697258386
26.54663737349167
14.99360748167784
15.65936950824394
15.65944588699594
14.99355142154987
15.6593796901768
15.65930271047898
14.9934880572038
26.55358011413405
26.53041529195362
26.50267530505138
26.49646320621079
18.10210065102029
18.42611200471496
18.42654075670613
18.10193180497328
18.1018220027697
18.10220666772531
18.42642256060678
17.77772829948114
17.77757618693239
17.45339594772337
17.45308409908882
17.4533098367312
17.77747769096517
17.77782367063497
17.77766409626905
17.77737795513661
17.45302457498488
17.45322312335157
17.45325211126739
17.77741133924173
17.77763180610276
16.80434572535111
16.80423898125911
17.12892702233256
17.12864579649861
17.12884863305002
16.80416782278846
16.80441975696035
16.8043015856962
17.1285923954269
16.80409556369679
17.12877110345009
17.12879700808659
16.8041195257457
16.80427880661689
18.10113227707878
18.42514664058025
18.10108130838605
18.42547478594578
18.10125174697207
18.42534062070784
18.10095932255053
17.77685949553878
17.77681369669915
17.45239028881681
17.45262443842709
17.45252895497929
17.77696616554224
17.77670485296968
17.77678753754199
17.77659443941958
17.45232457463802
17.45243210437105
17.45246454194085
17.77663142023961
17.7767513006494
18.10125659727539
18.42543524675711
18.42574044168752
18.10145103963293
18.10148953496905
18.42547972618154
18.10121698427231
18.10133524889541
18.42569873788356
18.42582610837759
18.10167930654924
18.10156598012341
18.10145181557041
18.42556800272695
17.77704113552067
17.45278512535722
17.77734929725749
17.45287740104839
17.77724787645305
17.45269185411286
17.77714531530783
17.77697088402574
17.45259731067216
17.77714510500747
17.45281622146197
17.77717951626686
17.45262897516862
17.77693551181859
16.47924827391559
16.15463866163618
16.47921733983005
16.15483429929037
16.15473963228903
16.47932386384004
16.47914362983185
16.80371808222965
16.80368434116161
17.12802184215496
17.12823244155618
17.12814664700778
16.80379617669056
16.80360491061501
16.80366559913443
16.80352466971135
17.12796278117461
17.12805957292915
17.12808874391464
16.80355151533701
16.8036391369428
16.47936744933645
16.15495553764339
16.47953628601042
16.15504517344937
16.15484886903365
16.47950091678523
16.47943858672317
16.80384980071575
17.12837662190644
16.80406688478756
17.12845953243211
16.80399885934683
17.12829299139883
16.80392525330396
16.47932106597715
16.15478344034775
16.15500773049187
16.4794344325041
16.15480801509349
16.47945738369222
16.47929701114763
16.80379897086962
17.12820814722482
17.12840489994254
16.80392561996527
16.80395042853898
17.12823659115863
16.80377319044173
17.77810254844385
17.77770558341223
17.45350920836194
17.45343225097379
17.77794895579877
17.45364835861786
17.77786426510201
16.80463403444233
16.80433014170582
17.12902994415682
17.12895963186703
16.80451417564332
17.12915721054843
16.80444909336816
17.77727745178952
17.77695643969743
17.45277196623799
17.45274961264071
17.77710608416851
17.45290291979193
17.77713121394012
18.10179172069159
18.42586998569969
18.42632248402924
18.10182795934416
18.10160466722717
18.10200992864742
18.42607925983022
17.77744960429441
17.45290765995739
17.77748252538724
17.45323472750245
17.77728205847443
17.77764586903038
17.45305776741331
16.80401094412377
16.80378731513265
17.1283642751426
17.12834432078719
16.80389549323042
17.12848044752526
16.80391347103487
16.80413946876345
17.12848672168662
16.80416516102554
17.12878007636722
16.80402636966591
16.80428405540261
17.1286201811745
21.98830850680199
22.30985809038894
22.31114030536004
21.98685679414748
21.98703680445925
22.31133488082861
21.98814158629242
21.6653838906484
21.664749735476
21.34103657994786
21.34233562324561
21.34197507126755
21.66579925735387
21.66430460563089
21.66510030062196
21.66384618618265
21.34077430382678
21.34160481307132
21.34172933347091
21.66400050286407
21.66495644885537
20.69456543706145
21.01738008531671
20.69373687509047
21.01810440768454
21.01821265097025
20.69383691513681
20.69447096380315
20.37096495612505
20.37058865796494
20.04651969000266
20.04728857166925
20.04707599605538
20.37120625789015
20.37033419212129
20.37080118889335
20.37007409093359
20.04636815614891
20.04685910712064
20.04693189027203
20.37016142831105
20.37071841770754
19.07489434773796
18.75034200629279
19.0746600588866
18.75082115911914
18.75068901495321
19.07504250366692
19.07450556386864
19.39903219396068
19.39876953345511
19.72260321352724
19.7232833009635
19.72309541331068
19.39919878535402
19.3985953851605
19.39891948618249
19.39841807654316
19.72246981158169
19.72290395386781
19.72296817640972
19.3984775354903
19.39886263006289
21.66697755610415
21.6653235000441
21.34251524706613
21.34280187422016
21.66633511440635
21.34336252480539
21.66601066338524
20.37190027040498
20.37091947397834
20.04738709330539
20.04756550281557
20.37152011587467
20.0479015963619
20.3713199185571
19.39968143597802
19.39899694992468
19.72336907984598
19.72352842182719
19.39941640775143
19.72382644705463
19.39927378647689
21.98646205079363
22.30809815222806
22.30831519890538
21.98470836320036
21.98569516972215
21.98551666136076
22.30920940579791
21.66349122507602
21.66198916175259
21.33975136039556
21.33962774684463
21.34032275466124
21.66283065795318
21.66268266727478
21.66425161352404
21.66436629544556
21.34031722680876
21.34171740443329
21.66509670219669
21.34098222815035
21.66348041031432
20.36984431528534
20.36899780302562
20.04575272856484
20.04568842113036
20.04608537091773
20.3693905754248
20.36946560364742
20.69398243113612
21.01697745715698
20.69406554469666
21.01819532056753
20.6945447887348
21.01755345352466
20.69348139763739
20.37028433842912
20.04608892873312
20.37035898471574
20.04690858877041
20.37077869663904
20.04647259572867
20.36984674213018
19.39825141403221
19.39767698799155
19.72192399534562
19.72186857108737
19.72221717808442
19.39794414269818
19.39799216091577
19.07446733431462
18.7500718318521
18.750578416976
19.07451632607114
18.75030659817997
19.0747719278467
19.07420318956041
19.39855422066085
19.72222144350096
19.39860855877306
19.72294478359409
19.39889649151167
19.72255906288734
19.39825608447397
21.98456738629275
22.30757116631806
22.30575300773948
21.98403705177428
21.98505869803798
21.98351850743066
22.30699566018934
21.98423304386564
22.3053367894581
22.30640492452705
21.98298667675799
21.98316545198392
22.3066036739738
21.98406376237844
21.66186230518878
21.66141460675015
21.33927928660673
21.33815566105245
21.66228371810632
21.33891618103292
21.66097170215748
21.66157588043977
21.66051821103461
21.33789747990294
21.33854508393853
21.33866968414264
21.66067056717867
21.66143098899326
21.98410261262419
22.30716034437247
22.3053984194907
21.98387842483499
21.98472219318053
21.98323071096845
22.30642649825675
21.98469817454262
22.30844450312336
22.30687970085322
21.98563284760886
21.98582565577757
22.30712263167185
21.98449319177876
21.98367761324412
22.30486833741976
22.30566418111182
21.98256010684232
21.98278625075963
22.30592153387499
21.98346140833107
21.66147954735012
21.66128423287493
21.33796074424962
21.33904791382857
21.66200578345716
21.33859837910038
21.66073589677381
21.66111946118522
21.66016986835155
21.3376417109719
21.33813569166289
21.33829141599052
21.66036055801883
21.66093655387716
21.66233405965307
21.66375583313454
21.33976279733494
21.34015090936885
21.66328186167783
21.6628352906957
21.33933318695895
21.66199124246925
21.66279338810087
21.3388912138274
21.33987268094862
21.66295786286758
21.33903994330147
21.66181715562014
20.368726030166
20.36861060351927
20.04474749570537
20.04536072315651
20.36901515656398
20.04510879784576
20.36831231473499
20.69196784453875
21.0146714217516
20.6913656080002
21.01509716187248
21.01523052144996
20.69148437444903
20.69185301581214
20.36852956078304
20.04457141724646
20.3680070161058
20.04485142123248
20.04493782933267
20.36810957535981
20.36843018626208
20.69274563828781
21.01649866477461
21.01683718620728
20.69366847455816
20.69336233439356
20.69306603245201
21.01612855220847
20.69252767152311
21.01574859843446
21.0165970688334
20.69304877542802
20.69315413503756
21.01587636604986
20.69241734646993
20.36920622702439
20.04577232148375
20.3700120534994
20.04600161602166
20.36974507049792
20.36948484250013
20.04552899881428
20.36901694891931
20.04528047904014
20.36947206644661
20.04584304376585
20.36956374858745
20.04536390603036
20.36892122669412
19.07353266171494
18.74925875487298
19.07346141462051
18.7496280817475
18.74947696238028
19.07370343461766
19.07328642581576
19.39749779610602
19.39741773586186
19.72104413884628
19.72158136442474
19.39769145738187
19.72136092318788
19.39721899969018
19.39736666134331
19.39701647041469
19.72089052139967
19.72113602896126
19.72121149625563
19.39708440789429
19.39730047501351
19.07370829590026
18.74958294927843
18.74992564948676
19.07398295957267
18.74963304042528
19.07403767576108
19.07365170215676
19.07382050174689
18.74987944555772
18.75002191053903
19.07430660975107
18.7497324063185
19.07414617133982
19.07398639607826
19.39782318914762
19.72194338658409
19.39837193401486
19.72214606203163
19.39819067772638
19.39801098781379
19.72173002743184
19.3976960470856
19.72151241117651
19.39800608164595
19.72200683967073
19.39806799006648
19.72158543028538
19.39763188297643
26.24230075096687
26.23181560397505
26.25168525152777
25.77055341984131
25.76335286153761
25.77585963153889
25.75596192428339
26.22914733478655
26.24717825328588
26.2499412685219
25.76925832149696
25.75124622039655
25.75413355427661
25.76722691092842
25.61026385567329
25.60367180896193
25.11946892635985
25.13289014867815
25.12925908653258
25.61509010049745
25.59708050379665
25.60909277084875
25.59291690944078
25.11833175818255
25.12704398442315
25.12839122528953
25.59546240408358
25.60726120468111
24.48654194646995
24.95892324882279
24.47855907559769
24.96682210943572
24.96804069996606
24.47969272857089
24.48563267362152
24.32642294646088
24.32310976230857
23.83915474155613
23.84589036261254
23.84392914514012
24.3287164929934
24.32030288246419
24.32588554039069
24.31862155841032
23.83866609779819
23.84289064856611
23.84352731274134
24.31964113107917
24.32505788455427
22.95675495547115
22.63243551046456
22.95444207204295
22.63393034197426
22.63415819101766
22.95473585638671
22.95648701505924
23.2797218270822
23.27840717761635
23.59916803832627
23.60297411018731
23.60190529998147
23.28062256139355
23.27740982326158
23.27909942578467
23.2763759747534
23.59833511658738
23.60078617689222
23.60116443664855
23.27672010548352
23.27878306558571
26.64619696773724
26.61750100582945
26.63587152018789
26.63001647113538
26.54064303522508
26.55464124053364
26.38846009389081
26.39054284428565
26.54916686232619
26.54691548892861
26.38295248456449
26.69836948669251
26.71410442732813
26.70794422313576
26.70550906379162
26.69149561317476
26.69670775028283
26.7020686756752
26.64181921469857
26.53181082926858
26.53082598344451
26.38133756448831
26.36722038177283
26.53893667077725
26.55717830842871
26.37513859186999
26.52498056975152
26.54159869813633
26.36063233221663
26.36395267018486
26.55860683895195
26.55304884829495
26.36926992639067
26.53467764593185
26.38599121448031
26.53930170832092
26.37307308727728
26.54399396139231
26.52924850003993
26.37776490405605
26.72139033349221
26.73210202157077
26.73030855461098
26.72354513937721
26.71990125318552
26.72844211177146
26.72907259219826
26.7191410102147
26.70964061488021
26.69715500464126
26.69824155163713
26.70872549402225
26.55078314280742
26.53975578171781
26.38320946471027
26.39138367359819
26.39210448512749
26.54071876715321
26.54996920846562
26.55237864744278
26.54533826473699
26.38485991707395
26.39556903097187
26.39351800565778
26.55468813969951
26.54260768423276
26.55997522723287
26.56772841996747
26.39971281757938
26.40786788723132
26.40032757318732
26.56830464015536
26.55928986677292
26.56131898827186
26.57107970265259
26.40328827345478
26.40889613938878
26.40153417131168
26.56943553152888
26.56326818329449
26.73306268126909
26.74335520028352
26.74010086116321
26.73689274592436
26.56487653665082
26.40841148719534
26.56201670226891
26.39781513923352
26.40470077749899
26.55726998866115
26.5689728640481
26.72535018871925
26.72224361012767
26.71696553216135
26.72985234855339
26.72111975053246
26.70743489889569
26.71197050775231
26.7173001095205
26.72948755075586
26.73438631142467
26.72627835419407
26.73708164481371
26.56105156444216
26.39384625638821
26.5487871356452
26.3981794750223
26.40125653671534
26.55281173483036
26.55761632073028
26.56867246760004
26.41458887505718
26.57317922192428
26.40552759377848
26.40817738865415
26.56574870061674
26.57566440376612
26.72060333505347
26.72256177911174
26.72792485382078
26.71443653417421
26.55969455689612
26.56026148350484
26.40550933431429
26.39413434667921
26.55331742235246
26.39984174013961
26.56589381548305
26.71983141160725
26.72037125374945
26.71272261707125
26.72659182224347
26.56592572719326
26.41054999440451
26.57678977695277
26.41094440808589
26.57192189264711
26.40547320462063
26.57143052660111
26.72670315009206
26.73845643239106
26.73324720089701
26.73264857936559
26.55334058623118
26.5389352112938
26.38769565269325
26.38824303555611
26.54617319313239
26.39406061617467
26.54692215648462
26.56030426975071
26.56199408525544
26.4063552514958
26.39512954789303
26.56696869329556
26.40031106874833
26.55464215418612
26.63241488277172
26.69203998233695
26.63907866568354
26.68830870926221
26.62403854061921
26.5995151313943
26.60277354843496
26.62145041838801
26.63090208321196
26.64863289844155
26.68568965928665
26.62851578054983
26.54928254784187
26.53824521664634
26.35934855987771
26.30387281367887
26.55588504635843
26.35568483487345
26.53015900348485
26.55411641227889
26.52867656090232
26.37368779497183
26.36249345388393
26.52981863089867
26.36362663922245
26.55192232043086
26.52075197227495
26.53525590215625
26.36903749992738
26.37560441951281
26.52452946149501
26.53203928997683
26.36583506619568
26.54778550051531
26.52532530132787
26.30246415289754
26.31613853211403
26.35312155402027
26.52825500901172
26.54542250035742
18.10071114097489
18.42498842283792
18.10094244535066
18.42500938650879
18.10081838434268
18.10083679209527
18.42486794597727
17.77648315228892
17.77668956206145
17.45227740706678
17.45229178149626
17.77657892392246
17.45219158451225
17.77659515867456
17.77640758839885
17.77646669191242
17.45221064152377
17.45209002806479
17.77650428127217
17.45212403108787
17.77636953598804
18.10055334844733
18.42464174472091
18.42469033789838
18.10051024841126
18.10063889980044
18.42492945742765
18.10076562601914
18.42478674929668
17.77641866458871
17.45223480005103
17.45213381517146
17.77653159128744
17.77634248098511
17.45203147175796
17.45206573706812
17.77630411698926
16.47899674663419
16.15456532545506
16.15457461592208
16.47913422947974
16.47906025552791
16.47907043746619
16.15450730770988
16.4789544290966
16.15453758296312
16.47902834255741
16.15446980785682
16.47890511932409
16.15440390750902
16.15442595305246
16.47888040537898
16.80344317811651
16.80359357097528
17.12792025680516
17.12793302463815
16.80351301591856
17.12784303496284
16.80352438697259
16.80338862998301
16.80343177397324
17.12786029711232
17.12775194000926
16.80345893653564
17.12778242516315
16.80336123631737
16.80339628835124
17.12788172269001
17.12779108411872
16.80347795522994
16.80334142057391
17.12769934758861
17.12773004615896
16.80331386373057
17.77692180355856
17.77683465221877
17.45266540562501
17.45242326539343
17.77701224794199
17.77674204198705
17.45258431163437
18.10113463979268
18.42511625017176
18.10093166602284
18.4253443054
17.77686090858412
17.45236733750441
17.77667968160416
17.45252968360069
16.47924626915922
16.15462301262568
16.15473818108878
16.47912519284951
16.80376229926129
16.8036990401872
17.12826900424704
17.12805117956657
16.80382891849857
16.80363105250684
17.12819603215983
16.80371743572413
17.12800078330001
16.80358531242686
17.1281467944223
20.36891616751673
20.36867498679594
20.04547985621373
20.04484573628409
20.36915445313288
20.04527114201263
20.36842769943222
20.69223377824442
21.01488423134291
21.01543888090821
21.015546517558
20.69166283219651
20.69214039165694
20.36875491103867
20.04469961442712
20.04513002279079
20.36826031845305
19.39761822324011
19.39745839076047
19.72168383978525
19.72112830246082
19.3977800824169
19.72150035879072
19.39729152333358
19.0735405794058
18.74922537729675
18.7494824515794
19.07324979930005
19.39750895727563
19.72100023543974
19.72137640236722
19.39717886034945
21.98156417864013
22.30426450243728
21.98207947046455
21.98226629606679
22.30342411089155
21.98147229540875
22.30398979017908
22.30302099853365
21.98181059720855
21.98204502354862
22.30330958530145
21.9812316254325
21.98108268906896
22.30255477127826
22.30284702737989
21.98083804406435
21.65964369883502
21.6606861412668
21.33752030644992
21.33743329166721
21.66022493453141
21.6601192751427
21.33702722353376
21.65932029782664
21.33725222983254
21.65991129811198
21.3367514088664
21.65924574924783