/*--------------------------------*- C++ -*----------------------------------*\
  =========                 |
  \\      /  F ield         | OpenFOAM: The Open Source CFD Toolbox
   \\    /   O peration     | Website:  https://openfoam.org
    \\  /    A nd           | Version:  7
     \\/     M anipulation  |
\*---------------------------------------------------------------------------*/
FoamFile
{
    version     2.0;
    format      ascii;
    class       volVectorField;
    location    "0";
    object      U;
}
// * * * * * * * * * * * * * * * * * * * * * * * * * * * * * * * * * * * * * //

dimensions      [0 1 -1 0 0 0 0];

internalField   nonuniform List<vector> 
12670
(
(0.9991605789877233 0.0002800256751026646 -6.096155298959751e-05)
(0.9993415046491012 0.0002020512289988636 -4.3896354451857e-05)
(0.9994741616427018 0.0001483310674754378 -3.212742394863378e-05)
(0.999572968451154 0.0001101787707286212 -2.380421080840001e-05)
(0.9996471418060148 8.233393360359663e-05 -1.775598622698127e-05)
(0.9997028969126387 6.145360236390443e-05 -1.323580761812223e-05)
(0.9997445123940941 4.533523816451309e-05 -9.755199289132318e-06)
(0.9997749517117427 3.24775709719491e-05 -6.98388005067579e-06)
(0.9997962511276791 2.181798163354965e-05 -4.68953650399803e-06)
(0.9998097663375771 1.256803608407261e-05 -2.700587031698322e-06)
(0.9998163269697614 4.105014833515655e-06 -8.819525826050618e-07)
(0.9990811335983021 0.0001799716449556952 -6.519920054822666e-05)
(0.9992870136007067 0.000128899697812042 -4.657178855611294e-05)
(0.9994362425001867 9.392963580466886e-05 -3.386185922839609e-05)
(0.9995459080618395 6.933651205235839e-05 -2.494970352060892e-05)
(0.9996272926329048 5.155639107097128e-05 -1.852402523551244e-05)
(0.9996879090486813 3.833187245091613e-05 -1.375619381994453e-05)
(0.9997328295994394 2.819326121788826e-05 -1.010843567952178e-05)
(0.9997655066125585 2.015178194605155e-05 -7.220217662203149e-06)
(0.9997882794607937 1.351585790926567e-05 -4.840206783322936e-06)
(0.9998026894785705 7.777575292455431e-06 -2.784355095460835e-06)
(0.9998096731005742 2.539040973818425e-06 -9.088275099695369e-07)
(0.9992045907423587 0.0002693953668101183 -0.0001756414500558923)
(0.9993713685684641 0.0001952982398440865 -0.0001271432145072029)
(0.9994949713629032 0.0001439343921456723 -9.344215584320502e-05)
(0.9995878531545096 0.0001072660067567725 -6.948119497393887e-05)
(0.9996580876521768 8.03745836630261e-05 -5.197683790651838e-05)
(0.9997111834419665 6.012169902278209e-05 -3.883268620483731e-05)
(0.9997509876047884 4.442848864080385e-05 -2.867075689987875e-05)
(0.9997801982910557 3.186942982131318e-05 -2.055262146318282e-05)
(0.9998006873954483 2.142957001197011e-05 -1.381357216818123e-05)
(0.9998137099066382 1.235182806326343e-05 -7.95968418830183e-06)
(0.9998200374572165 4.035607645697945e-06 -2.600226366732559e-06)
(0.9991294871768789 0.0001728373254419242 -0.0001874656209359951)
(0.9993194701327888 0.0001245161750665641 -0.0001347491944182187)
(0.9994586368025448 9.111271949205878e-05 -9.843370419041966e-05)
(0.9995617936756177 6.748206295130757e-05 -7.279712206093809e-05)
(0.9996388859108094 5.031514537258427e-05 -5.420849835961393e-05)
(0.9996966251950073 3.749197141969688e-05 -4.034930021178643e-05)
(0.9997395990033169 2.76237700372371e-05 -2.970278938987855e-05)
(0.999770962992487 1.977109849310632e-05 -2.124448452565471e-05)
(0.999792873747024 1.32733281842264e-05 -1.425530001966253e-05)
(0.9998067612642464 7.642796839643377e-06 -8.205511035508415e-06)
(0.9998134981825584 2.495810309284992e-06 -2.67913211919923e-06)
(0.9988623064877394 0.0002050364420101052 -4.479747967731722e-05)
(0.9989232143442979 0.0001971160282414361 -0.0002144757906964296)
(0.9976794656170748 0.0009312850266719703 -6.042061255992449e-05)
(0.9973323221296694 0.0005503472830134734 -6.760154978924618e-05)
(0.9985168177394076 0.0002668416482309796 -3.122512500135763e-05)
(0.9978209091004091 0.000886799797460718 -0.0005175894599760486)
(0.9974991813465819 0.0005227381781791593 -0.0005776506041561218)
(0.9987128831183947 0.0003126460015586548 -0.0003481933874606769)
(0.9934240036397078 0.004206800100241462 -0.001997885898768958)
(0.9955318169792936 0.002386082477674987 -0.00110943265710465)
(0.9974784142646655 0.001042551029537268 -6.77905288373803e-05)
(0.9937953007277536 0.004028029088413887 -0.002456143664174138)
(0.9957157348268049 0.002310532506853798 -0.001380232964792819)
(0.9976408733614992 0.0009897698261362501 -0.0005788743756382892)
(0.993206498973294 0.003803198350461761 -0.002636583861207313)
(0.9946461562992496 0.001452949647498554 -0.001649118251485683)
(0.9972718186143402 0.0005871050388620173 -0.0006501886816547246)
(0.9927938430792682 0.003976084331137491 -0.00214715005729318)
(0.9944065469236377 0.001503530606195686 -0.001328500968140593)
(0.9970784081677372 0.0006199293599555012 -7.633253093126042e-05)
(0.9850003830379072 0.01666292804258125 -0.009593904655956173)
(0.9927316809675618 0.004896528979931353 -0.002341579435379251)
(0.9932197991244279 0.03306291305972195 -0.0166501514124162)
(0.9990885046514434 5.967102818468743e-05 -0.0001940717385472683)
(0.9988813176199631 0.0001206547703245916 -0.0002194361997417225)
(0.9972737311593439 0.0004355456851209932 -6.881560600819276e-05)
(0.9984743332979322 0.0002044649535554273 -3.17586270481644e-05)
(0.9974448150166068 0.0004135114821003803 -0.0005877801520607868)
(0.9985829295350022 0.0002044265127584272 -0.0003258795811058087)
(0.9944559078708215 0.001161311315878456 -0.001696420961477368)
(0.9972091932759263 0.000464879491693227 -0.0006622194406122193)
(0.9906880580339085 0.002257361444262749 -0.002639341063970898)
(0.9942060934641829 0.001202124297363545 -0.001367085879087498)
(0.9970104969910293 0.0004910796013277769 -7.777802361558872e-05)
(0.9860772254662016 0.01586090113115556 -0.01031833017681919)
(0.9931796470715641 0.004671242136060082 -0.002867149300583866)
(0.9558931616918132 0.03022524973992144 -0.04861454093550052)
(0.9845989944658255 0.01590803443116525 -0.01110125207735676)
(0.992476169305412 0.004432199426680545 -0.0030945828365636)
(0.9504361209773202 0.02925768266720946 -0.05281699267204804)
(0.9728173299323183 0.01120520584769997 -0.01715584526993381)
(0.946657867492873 0.03468353857856591 -0.05520890906807938)
(0.9445751601523098 0.03305068196204052 -0.05695060505526343)
(0.9522289940041175 0.03291044943957665 -0.05550430762263911)
(0.9477555985659005 0.03273520604056891 -0.05031489283049562)
(0.9833952403851045 0.01673090640338037 -0.01033642986765837)
(0.9919750850583173 0.004651720846673815 -0.002530762460805058)
(0.9460543012344108 0.03114060823830366 -0.05264021446325115)
(0.9705550976553808 0.01184619139362371 -0.0161026506515845)
(0.9894095569651483 0.002681427874131542 -0.003164783183410539)
(0.999036444437487 6.230936600309176e-05 -6.767765377241774e-05)
(0.9992576136901794 4.432596793212201e-05 -4.802291207003289e-05)
(0.999416087536587 3.215996436330177e-05 -3.477921068319477e-05)
(0.9995316545375393 2.366104623420896e-05 -2.554995082427497e-05)
(0.9996169122824035 1.754816483369414e-05 -1.892446924654468e-05)
(0.9996801178610321 1.30209180350997e-05 -1.402647307148343e-05)
(0.9997267868058516 9.56237855568484e-06 -1.029130650466624e-05)
(0.9997606412435166 6.827196825819175e-06 -7.342247577094068e-06)
(0.9997841862761917 4.575342535495125e-06 -4.917848969336745e-06)
(0.9997990639410648 2.631481210247744e-06 -2.827464678548654e-06)
(0.9998062682689017 8.588479289534696e-07 -9.226490358215174e-07)
(0.9992916870776649 4.278069479661555e-05 -0.0001388250414199229)
(0.999439363103592 3.118320993796046e-05 -0.0001010640615077659)
(0.9995480755197426 2.302222395632973e-05 -7.453282846314368e-05)
(0.9996288473129332 1.712224007784028e-05 -5.537161761975511e-05)
(0.9996890593510139 1.273360455845885e-05 -4.113681945161139e-05)
(0.9997337097536844 9.368072559369751e-06 -3.023696313843607e-05)
(0.9997662066102495 6.697579891724663e-06 -2.160165143759836e-05)
(0.9997888623013363 4.49289157637803e-06 -1.448288893249112e-05)
(0.9998032018267105 2.585707603044856e-06 -8.332001830393053e-06)
(0.9998101523152461 8.441731821124573e-07 -2.719706896428256e-06)
(0.9988203584279033 0.0001244338893911156 -4.565504857731208e-05)
(0.9977656653511029 0.0009042374797741083 -0.0004105707939060965)
(0.9982321913917114 0.0006580845774218294 -0.000296808595418129)
(0.998172862461343 0.0006733923010722999 -4.333644608231215e-05)
(0.9986386537431697 0.0005026927978320084 -0.0001794813675121065)
(0.9983593995768789 0.0005950951712881859 -0.0002665317530704871)
(0.9986132747818047 0.000504490138647355 -5.989092717987923e-05)
(0.9983062900059864 0.0006058391778590415 -3.881508229874288e-05)
(0.9974339819920317 0.0005335299959429181 -0.0004586323950165936)
(0.9980065901750242 0.0003815724796587832 -0.0003261018518761118)
(0.9979405960354736 0.0003924202711020109 -4.791970690596505e-05)
(0.9975785987090418 0.0008495699269305348 -6.250645409288092e-05)
(0.9976693440600917 0.0008245609481771254 -0.0004245617249948471)
(0.9981678258250333 0.0005961009644137922 -0.0003047332483928675)
(0.9981043031122926 0.0006112946592567463 -4.461139503311374e-05)
(0.9985769628322018 0.0003049639648723327 -0.0002223698981164945)
(0.99815902812756 0.0003433754905986311 -0.0002927333616702997)
(0.9981027961692246 0.0003529856211983331 -4.305605102167858e-05)
(0.9974208766399669 0.001633023788283544 -0.001319760703471056)
(0.9983097045546 0.0005363701866763761 -0.0002727141793532336)
(0.9984409129228129 0.0005951034067588472 -5.778421165411556e-05)
(0.9982458436778452 0.0005499189414146213 -3.996076685127859e-05)
(0.998270389360178 0.0006483019401360713 -0.0003760592954324301)
(0.998685549243757 0.0004775680943307394 -0.0002910537183645972)
(0.9983983025404074 0.0005878601185434892 -0.0003394314568378006)
(0.9980499571170323 0.0003743201940889946 -0.0004116822526040149)
(0.9977274944432922 0.0008084744199462004 -0.0005351114058085724)
(0.998207215857657 0.000586735999534107 -0.0003860158512138981)
(0.9981971373054628 0.0003359431664317464 -0.0003691105656141291)
(0.9986050382745137 0.0004017763617936056 -0.0003027307050093938)
(0.9983425401158635 0.0005278594484422825 -0.0003473919873031893)
(0.9928154553649982 0.004497160904926555 -0.0003056703836412316)
(0.9950902161165777 0.002733718870652503 -0.00127680142595303)
(0.9947402630385643 0.00288185660993518 -0.0001925408493590609)
(0.9952376674833507 0.002506097137128301 -0.0001666532612958091)
(0.9965977052159306 0.001620280620571728 -0.0007450619524365003)
(0.9964178848815726 0.001686434838453456 -0.0001108649474130794)
(0.9975774713641808 0.001010429124374898 -0.000459749845372439)
(0.9968824899363433 0.001433481823054784 -0.0006571726377029154)
(0.996728507691088 0.001488322013783128 -9.753532713477689e-05)
(0.9953079077445499 0.002640876212423 -0.001584498679490399)
(0.9967115359872913 0.001578188702396299 -0.000932604774124442)
(0.9969802886408782 0.001398486277562717 -0.0008239679792650816)
(0.9916428853068433 0.002668894643047878 -0.003108849724185948)
(0.994042522810593 0.001679807997816951 -0.001916865794448376)
(0.9949542683176886 0.002463006344180271 -0.001678115001741022)
(0.9960491364232982 0.0009640146967197929 -0.001080164351742126)
(0.9954150153622338 0.002147542851082893 -0.001456382430376177)
(0.9965224291830357 0.001454167397132717 -0.0009749785927689517)
(0.9964111548823116 0.0008472813590517786 -0.0009461180047100388)
(0.9975339506631573 0.0009040319422922894 -0.0005996394856326995)
(0.9968171098245445 0.001285433977909723 -0.0008591835949667085)
(0.9912458251724016 0.002151622150091968 -0.003228751351446629)
(0.9906048711113141 0.0003245622649009665 -0.003420451108303605)
(0.9938153577916599 0.001345113004594411 -0.001975842415018001)
(0.9934559352676988 0.00020080414196576 -0.00206870857375831)
(0.9911183383512844 0.002797775365620121 -0.002539034177367179)
(0.9921149172830352 0.004257432944559911 -0.0003292689222347154)
(0.9902458871799246 0.00300809462652424 -0.0003913119025248146)
(0.9937536701031136 0.00174292210084894 -0.001548554853246183)
(0.9932872451732861 0.001843883958918793 -0.0002344411306658498)
(0.99471709224533 0.002551370952552171 -0.001353262177776576)
(0.9943352977777721 0.002692530964961271 -0.0002043150447203676)
(0.995907507891197 0.0009911287149472151 -0.0008642484243494292)
(0.9940218876198808 0.001584090018852824 -0.0002002426217821091)
(0.9956832098806498 0.001033839296831543 -0.0001288980097663789)
(0.9952157406485485 0.002219123424133919 -0.001171415963304665)
(0.9948966628413908 0.002332948881933145 -0.0001761455205287112)
(0.9964007934167407 0.001493585276887912 -0.0007792653023723762)
(0.9962084952119399 0.00155558077265323 -0.0001160348340868701)
(0.9971963786771665 0.0005999275804177035 -0.000516882551723599)
(0.9962910229789114 0.000869578928352217 -0.0007556024543535447)
(0.9961014551154367 0.0009045957457273799 -0.00011237420979764)
(0.9973625801591532 0.0009528858172618751 -7.027134841258079e-05)
(0.9974670883181375 0.0009231413750587474 -0.0004763671764544043)
(0.9967130080784847 0.00131809690845744 -0.0006855322771118084)
(0.9965489889687559 0.001369314744706357 -0.0001018067137465736)
(0.9918054888564639 0.03063618831918287 -0.01535125295969287)
(0.9697123794198863 0.0505388544758455 -0.002129791764703732)
(0.98438849622886 0.01831815189438313 -0.0106390597876535)
(0.979145763551991 0.02224649148194136 -0.0008720936530825899)
(0.9803939846472507 0.01998947737902185 -0.0007760275850403611)
(0.9892866614565856 0.008978269103497511 -0.004874878967075843)
(0.987236398845212 0.01001437074481735 -0.0003582316856218727)
(0.9919923688923165 0.005265843282358253 -0.000360143238243029)
(0.9901448780149529 0.007972307527906617 -0.003905671271268845)
(0.9879658830135436 0.009146135326890127 -0.0003321823549135897)
(0.9795987618808474 0.04187839026453825 -0.02862804551332544)
(0.964780332884247 0.04422674338756725 -0.04049344209619507)
(0.9449422534401919 0.05671832587977554 -0.03116204539400667)
(0.9690135423970881 0.05296113011899091 -0.02204544340574195)
(0.9688745359981731 0.05746726987823393 -0.002439332719578489)
(0.9729015098040804 0.05289114407206687 -0.01571154275655217)
(0.9863150327966087 0.04486396868122294 -0.001515351414459243)
(0.9881227443465589 0.04186217423648021 -0.009891560001925953)
(0.983743009009964 0.04003897986433066 -0.02515045824472069)
(0.9753017768231491 0.05012380040069332 -0.01910133150484258)
(0.9892158172681011 0.04002179670569626 -0.01214952905938157)
(0.9830713532338842 0.03804382174553348 -0.0292846016147753)
(0.9919050271693922 0.02752160139846048 -0.02800165173915602)
(0.9707513223553541 0.03983431091767262 -0.04086832164666299)
(0.9853412168882077 0.02810113379890225 -0.03747572222227687)
(0.9412218983683014 0.05859224930612497 -0.02825522067131989)
(0.9607948022527638 0.06115165579737763 -0.002839865633038037)
(0.9659528425137689 0.05604371537038946 -0.01820314413034185)
(0.9307569214745518 0.06487517789566337 -0.00211742363057811)
(0.9973779745685647 0.000422126110087779 -0.0004667564222979272)
(0.9979697147294756 0.0003014276127143688 -0.0003315066484905807)
(0.9979023994416272 0.0003099371639465877 -4.867702811178281e-05)
(0.9984937998105263 0.0002081909255208927 -0.0002249359921236007)
(0.9981274543692843 0.0002713668419155457 -0.000297911682816863)
(0.9980696264947473 0.0002786338265579214 -4.368700525853683e-05)
(0.998013376138095 0.0002956753658013042 -0.0004185362416290031)
(0.9981650220420712 0.0002658276996726328 -0.0003761994451494345)
(0.9959340747568605 0.0007669267399336066 -0.001105565597286752)
(0.9963129551031056 0.0006731721379283575 -0.0009670162029351555)
(0.9899970930670292 0.0003404712076507274 -0.002795984289493331)
(0.9897637438464217 0.002426380514545076 -0.0004067780731002013)
(0.9935132946688827 0.001396159621898963 -0.001596839969346154)
(0.9930253632963487 0.001477687699932153 -0.0002418751890264251)
(0.9957874948495821 0.0007886758345344742 -0.0008847862361246703)
(0.9938048865068935 0.001267094383399601 -0.0002061604405500052)
(0.9955552687633314 0.0008229449103144189 -0.0001320097672041623)
(0.997131700208468 0.000475113078417033 -0.000526536223819878)
(0.9961888775016516 0.0006910279651126519 -0.0007724589007724447)
(0.9959930180220429 0.0007190779737157047 -0.000114919029289132)
(0.99316019276467 0.02843761511010692 -0.01610475445250189)
(0.9855959075809144 0.01738230439877137 -0.01140385199607591)
(0.9900605850482874 0.008709841634719783 -0.005427872078938112)
(0.9909950651972459 0.007474905663239089 -0.004694766660101112)
(0.9822576303802878 0.0345299348707679 -0.02626682052891998)
(0.9839581770184043 0.0174868404263726 -0.01231702389722145)
(0.9721641913584992 0.0137054580844746 -0.0186977672547044)
(0.9890297812576887 0.008479151605887454 -0.005685377016041117)
(0.9740915965247378 0.01230179572381079 -0.01651112468538467)
(0.9841969184133181 0.006025264367331863 -0.007453886536433886)
(0.9905834434362115 0.003143715349917573 -0.003694711899551924)
(0.9897277152220381 0.007257234981091379 -0.005216119886663156)
(0.985261337140852 0.005470656897262852 -0.006716833620034001)
(0.9707257877235099 0.0124940183122652 -0.01946225268166459)
(0.9652499443475515 0.0009294690579186003 -0.02236250488991768)
(0.9836307391851966 0.00545152204396855 -0.007664444427554679)
(0.9679611075316114 0.0008321159676105271 -0.0196027829425765)
(0.9815141428279035 0.0003973149854090813 -0.008468168125060599)
(0.9901095754568185 0.00254171336953673 -0.003849733541556968)
(0.9893167143112659 0.0003855018523082127 -0.004101520845755744)
(0.9847260443741407 0.00494182167268615 -0.006896411856862316)
(0.9828408273818249 0.0003598977296001658 -0.007595727751024302)
(0.9594921336599574 0.04368620857985644 -0.04472180708305572)
(0.9394783047816193 0.05603299565527823 -0.03281014255931841)
(0.9125781765887553 0.04645867806055892 -0.04358636989835236)
(0.9340155857671878 0.01944474687923918 -0.06561005406096297)
(0.8924521435385672 0.02560658407676491 -0.05202200556276471)
(0.9093164255457691 0.04426612523282292 -0.04493506432204491)
(0.9763243120542974 0.02355607388269076 -0.04996139741182878)
(0.9663876642804522 0.03926569415150705 -0.04492803087566939)
(0.9830125052258923 0.02755501385018086 -0.04073565710574622)
(0.9791282100471337 0.0377238179132806 -0.02547925491073192)
(0.9458321987651993 0.05246533580060663 -0.02269733419559004)
(0.9825995142175562 0.01845100630006071 -0.01150933236041826)
(0.9766674832562354 0.02251477273437583 -0.0009493756122523588)
(0.9696668743186013 0.01453732297268465 -0.01761660201740541)
(0.938160485261206 0.05286864015184695 -0.0270348983982616)
(0.9584883125253364 0.01808745353800275 -0.001500407589073142)
(0.9782210226890192 0.02015610005512583 -0.0008407188276570557)
(0.9884613245480324 0.008754801645373631 -0.005125433131212525)
(0.9863072543281721 0.009912361815657416 -0.0003837755756392065)
(0.971945475193247 0.01300156918586065 -0.0154876240414132)
(0.9833781252027007 0.006252076474551293 -0.006839673724146724)
(0.9625135314304598 0.01594963887483977 -0.001296086519934335)
(0.9801023239628639 0.007157735675100222 -0.0005269019845031501)
(0.989943339121266 0.003310998087322388 -0.003031999261431375)
(0.9911399342088952 0.005012068403688744 -0.0003907209197890476)
(0.98884388604575 0.003588267620286463 -0.0004714538755506012)
(0.988237657883463 0.007543597588612168 -0.004246040565923587)
(0.9871194980373494 0.009048315185523488 -0.0003512706565312872)
(0.9845108052962619 0.005665955596886699 -0.006143803642748848)
(0.9816518763729005 0.006450367735856171 -0.0004701002261539319)
(0.8926121559568315 0.02183426956613805 -0.04364464642091488)
(0.9680878422587667 0.01325612174002571 -0.01834957650230197)
(0.9620814267297758 0.0009868076928259263 -0.02112901334336907)
(0.8941364104323912 0.02465265975500563 -0.0430951632305436)
(0.9562620879390064 0.01650770984655765 -0.001566687090800569)
(0.9478535897564976 0.001225589532193473 -0.001814084180006776)
(0.9827826129694551 0.00565994057765326 -0.00703801616160287)
(0.9652589901044617 0.0008803716386662637 -0.01843653900289005)
(0.9805460113414816 0.0004129152495441175 -0.007786531304003537)
(0.9605984065895437 0.01454681893979213 -0.001350747004099362)
(0.9793761963818426 0.006486198673699923 -0.000542813372946227)
(0.9533334166315086 0.001081144346018201 -0.001556144620977709)
(0.9766123563358226 0.0004734641310621205 -0.0006019581289067609)
(0.9885510959804804 0.0004063091197469215 -0.003369307211694927)
(0.988240662562092 0.002903076680984289 -0.0004918899824935923)
(0.9839748001934794 0.00512636273913387 -0.006319670343242322)
(0.9819951470122141 0.0003733319795304323 -0.006968718627377061)
(0.9810136453715256 0.005839765426842944 -0.0004836642931743999)
(0.9363766659049532 0.05762879244548317 -0.02975992474103198)
(0.9245315512451923 0.06408307174588485 -0.002239711171968471)
(0.9081362699417295 0.04787782213942415 -0.03993875672274809)
(0.8902378450789854 0.05337898058809552 -0.003054383422075722)
(0.887039915004431 0.02632860228755293 -0.04769493970559179)
(0.8652704125648117 0.02909026089675148 -0.003654686961868414)
(0.9047085019694003 0.04560639609314778 -0.04118134758401239)
(0.8861406567316377 0.05079374675771382 -0.003151325966142099)
(0.9330136172148158 0.017245075680597 -0.06643990910118522)
(0.8909051905075297 0.02266606951273021 -0.05268548493726873)
(0.8854246518303672 0.02329964353594797 -0.04830312276489698)
(0.8633863639852588 0.02571915517771726 -0.003701180318617047)
(0.9946093802829984 0.03053538834695258 -0.01738344079635627)
(0.9493746901701644 0.03125602734558464 -0.05697481961405716)
(0.9988145066742136 0.0004019619090202245 -0.000146998913784776)
(0.9987952692960107 0.0004086531701419844 -5.001351454569999e-05)
(0.9989829656722813 0.0003432679297758964 -0.0001206161103928076)
(0.9989678495560921 0.0003459801608140674 -4.14419373855895e-05)
(0.9988770616022358 0.0002023765540558523 -0.0001303401467392165)
(0.9986742847584587 0.00024773553566437 -5.422435788049139e-05)
(0.998693964811321 0.0002461653934061875 -0.0001617352774559068)
(0.9987659319775679 0.000327403758683819 -0.0001521008718523399)
(0.998731012904934 0.0003318768157070677 -5.383065200566982e-05)
(0.998909189305117 0.0002722276402752268 -0.0001253425227161259)
(0.9988911046982304 0.0002757921357527391 -4.315108509048507e-05)
(0.9988566627386936 0.0003956358612791455 -0.0002393137383901535)
(0.9990225254304581 0.00033599511103308 -0.0001997570600498326)
(0.9987596553441255 0.0002359685419657449 -0.0002574256028527095)
(0.9987859287132513 0.0003162228030184959 -0.0002457870815203883)
(0.9989466404683057 0.0002654625733330284 -0.000207339529338421)
(0.9979672279383098 0.0008960425135871038 -0.0001556344266874245)
(0.9976941216892571 0.0009266965252766115 -0.000180364662915235)
(0.9977870735519356 0.001003009270591039 -5.818693381847661e-05)
(0.9978607878046253 0.0008340761866420116 -5.399360571624461e-05)
(0.9978736107111872 0.000830209292329888 -0.0001612370747633401)
(0.9978009118921959 0.0009981331634366609 -0.0001737103637763789)
(0.9979550948212195 0.000900155417224658 -5.211165180268566e-05)
(0.9976345769337389 0.0005840204140411147 -0.0001755933726583371)
(0.9973495951550386 0.0005474910463870509 -0.0002017430280321937)
(0.9975583113895707 0.00049012998603662 -6.007206222582863e-05)
(0.997403530533259 0.0006583152835505234 -6.612680393784641e-05)
(0.9974202692316751 0.0006549339971853915 -0.0001973524133988012)
(0.9975732289903954 0.0004877070961587841 -0.0001793209883999115)
(0.9976200814089842 0.0005868901457246055 -5.882036639639744e-05)
(0.9984124271549859 0.0003474609891476532 -0.0001051591488407932)
(0.9985277324765701 0.0002694131034485528 -9.2408953760854e-05)
(0.9983843296269739 0.0002902734849775126 -3.517986726231152e-05)
(0.9985151572763642 0.0003208998368196111 -3.417934178577326e-05)
(0.9985091732696045 0.0003255375912638741 -9.516740468979027e-05)
(0.9983924610428198 0.0002902410199401977 -0.0001052959673031444)
(0.9984080238166355 0.0003478241140833265 -3.539990896662394e-05)
(0.9981270508478147 0.0008408421766745851 -0.0005352390138922404)
(0.9978876188574606 0.0008656114856715217 -0.0006173326353625753)
(0.9979206295389312 0.000955644001959314 -0.0004987496941172334)
(0.9979844779391175 0.0007966347305059909 -0.0004640698679290815)
(0.9980718803225499 0.0008601115118990156 -0.0004481229232038685)
(0.9980428009175734 0.0007787035180984696 -0.0005542964578538786)
(0.9979837173112105 0.0009330423162788432 -0.0005949934239466961)
(0.9978272243046417 0.0005461625778567765 -0.0006019683186629266)
(0.9977028855873236 0.0004666761744835039 -0.0005147268433540505)
(0.9975778791829041 0.0005097045213726314 -0.0006882681750821744)
(0.997565243880977 0.0006256467238484846 -0.000565351343237583)
(0.9977606195101185 0.0005592078988198726 -0.0005042935358735777)
(0.997641510692881 0.0006102113250549155 -0.0006737892930283804)
(0.997771397736651 0.0004556135879964731 -0.0006142113125716018)
(0.9978193284248628 -0.0002236488917493652 0.000160476325991966)
(0.9987737637167423 0.0008727628349112106 -0.0002297614899926407)
(0.9984540190405222 0.0002760999909486865 -0.0003041112318628619)
(0.9987744424134103 0.0001959054318383021 -0.0008603936897996672)
(0.9973025966804876 0.001607283835873022 -0.001547608825113635)
(0.9984178998883219 0.0003257299765496944 -0.0002275701822492674)
(0.9984047873345794 0.0001964661342634468 -0.0003574521420608523)
(0.9943595189855144 0.003893190976810088 -0.001171921010523489)
(0.9931276058973459 0.004348403513953184 -0.001476699054359769)
(0.9940610682379667 0.004358221008324128 -0.001845556201523723)
(0.9940430468478676 0.003629303821232156 -0.001713025336411678)
(0.9945793104875821 0.003778929803736911 -0.001591240924065671)
(0.9937975480424047 0.003741894229568214 -0.001262698215019343)
(0.9937979896738283 0.004500986128441816 -0.001362723804827149)
(0.9960946348113071 0.002261658397036085 -0.0006685714426294553)
(0.9953875877259035 0.002445050069391007 -0.0008124967831126192)
(0.9959268262082451 0.002090146409321602 -0.0009678905344131998)
(0.9958593131098825 0.002516036428000645 -0.001044783913050597)
(0.9957274733409918 0.002576889932947929 -0.0007647270429150116)
(0.9962067983007317 0.002211754434103397 -0.000914927955331319)
(0.9958048170065145 0.002138275695971152 -0.0007076164066193123)
(0.9974149576053722 0.001248200192383319 -0.000218169323073527)
(0.9974952651695252 0.001037098849587806 -0.0002022969583342297)
(0.997255002282316 0.001170380680320193 -7.628370575101302e-05)
(0.9976016758128001 0.001120484288512495 -6.513877900929969e-05)
(0.9976175472906018 0.00111470609634725 -0.0001943991582174305)
(0.9972744656685446 0.001163883702718613 -0.0002275638018520602)
(0.9973966816921133 0.001255063524835903 -7.312801464185685e-05)
(0.9951797781830237 0.003463351472280536 -0.002286400508063787)
(0.9942247382991468 0.003819268364718016 -0.002841864045758813)
(0.9943912185081802 0.004177729999231732 -0.002271769503288003)
(0.9943523145519776 0.00348652260117276 -0.002113354259108062)
(0.9948565787661814 0.003633856391428406 -0.001965260004527775)
(0.9947122480960209 0.003318942800880046 -0.002455473042905973)
(0.9947737614233181 0.003966649587654067 -0.002632504317027841)
(0.9965208272704967 0.002071032612339275 -0.0013444876634392)
(0.9960829015874617 0.002028315182236785 -0.001206848169771596)
(0.9959329841874238 0.002220750097332973 -0.001619957303586126)
(0.9960275763924277 0.002438008498086064 -0.001300741948194234)
(0.9963503866059867 0.002147598720549524 -0.001141532376449156)
(0.9962265448531994 0.002345189971380497 -0.001527997570495241)
(0.9962679914503108 0.001954587563105717 -0.001420321125486938)
(0.9976552827562282 0.001157370244522112 -0.0007410025758104004)
(0.9977173248319292 0.0009647464776523657 -0.0006894106705163961)
(0.9974423035539849 0.001107614885199638 -0.0006492446209971361)
(0.9977547657509076 0.001064500079233511 -0.0005566347871674775)
(0.9978268961251042 0.001037932363471047 -0.0006631476129608057)
(0.9975726563571372 0.001188721063187934 -0.0006229183790281382)
(0.9975301539257375 0.001077978660837958 -0.0007720027995340115)
(0.9938168996328181 0.002854295360322643 -0.002775324941153241)
(0.9936831290233509 0.003601579018922734 -0.003046448585893365)
(0.9926403303572044 0.003500799182821143 -0.002808695216705617)
(0.9938575019251785 0.0032772290561361 -0.002257427447819106)
(0.9942541312144108 0.003116295639150426 -0.002619722506436667)
(0.9933846388627545 0.003004632641919178 -0.002394087804060207)
(0.9931631317677716 0.003311510289412956 -0.003241286970363064)
(0.9955922773853239 0.001437617927720907 -0.001620772602564915)
(0.9949282783268689 0.001393011647442169 -0.001930338905502283)
(0.9951749521539985 0.001262148006920096 -0.001425718645879831)
(0.9948735678617178 0.001716823432726454 -0.001592380700305585)
(0.9951416345238369 0.001646814352021708 -0.00186492661376448)
(0.9953668708179217 0.001494484194558339 -0.001379782682146952)
(0.9954114162283532 0.001213592712402276 -0.001673944163919965)
(0.9972068960465141 0.0007676508319717543 -0.0008513969265962647)
(0.997362675084458 0.0005716246540618053 -0.0007734636435992512)
(0.9970174431128138 0.0006613395700699183 -0.0007341986013646777)
(0.9973477946678178 0.000701818282898732 -0.0006355756513161407)
(0.9974356636259794 0.0006834795309236352 -0.0007562675015625628)
(0.9971051973165749 0.0007895263567630702 -0.000716743507730739)
(0.9971228068167752 0.0006428537022971192 -0.0008719023017340414)
(0.9927161159561579 0.003234391421453222 -0.001435329689220273)
(0.9921867935531922 0.00366314574330074 -0.002289565624868723)
(0.9924638440608292 0.004113041282957162 -0.001588593490911057)
(0.993516239955574 0.00341451076016277 -0.001831642491483106)
(0.9932450061955559 0.003522854927088956 -0.001351222690196968)
(0.9930122621787815 0.003132999527422765 -0.001944252449415581)
(0.9918244073878691 0.003791719150966258 -0.001695394361006054)
(0.9950271714163136 0.001579531438992664 -0.0008112380986893294)
(0.9949749904440717 0.001302971414452503 -0.001145644222586615)