/*--------------------------------*- C++ -*----------------------------------*\
  =========                 |
  \\      /  F ield         | OpenFOAM: The Open Source CFD Toolbox
   \\    /   O peration     | Website:  https://openfoam.org
    \\  /    A nd           | Version:  7
     \\/     M anipulation  |
\*---------------------------------------------------------------------------*/
FoamFile
{
    version     2.0;
    format      ascii;
    class       volVectorField;
    location    "0";
    object      grad(Phi);
}
// * * * * * * * * * * * * * * * * * * * * * * * * * * * * * * * * * * * * * //

dimensions      [0 1 -1 0 0 0 0];

internalField   nonuniform List<vector> 
12678
(
(-0.3333314428187723 -9.41058333308042e-05 -3.292287115584417e-06)
(-0.9999915331746899 -9.674296524142547e-05 -3.373919932586033e-06)
(-0.9999860345948705 -0.0001020866337824166 -3.539264260179508e-06)
(-0.9999807945813899 -0.000110274077340211 -3.792426548124949e-06)
(-0.9999759997567257 -0.0001215062792994105 -4.139407626783479e-06)
(-0.9999719292258084 -0.0001360392709521818 -4.587817687559695e-06)
(-0.9999689941265004 -0.0001541671894851327 -5.14631927142147e-06)
(-0.9999677862230887 -0.0001761912801323538 -5.823607369946021e-06)
(-0.9999691353050695 -0.000202366048414504 -6.626644555874008e-06)
(-0.9999741713622394 -0.0002328100273909503 -7.557767316806659e-06)
(-0.9999843800017711 -0.0002673648986899482 -8.610221320539073e-06)
(-0.3333322689570914 -8.943142721529189e-05 -2.995701668916232e-06)
(-0.9999952784926069 -9.174625186769718e-05 -3.061576375774297e-06)
(-0.9999923678112418 -9.641991082753887e-05 -3.194483336429722e-06)
(-0.9999898472231807 -0.0001035373145619191 -3.396648415283493e-06)
(-0.9999879442337534 -0.0001132172324038728 -3.671162840513208e-06)
(-0.9999869628222069 -0.0001255995673012929 -4.021614683384304e-06)
(-0.999987311651002 -0.000140824084614799 -4.451470183667054e-06)
(-0.9999895352001776 -0.0001589963910917366 -4.963082293952876e-06)
(-0.9999943454201448 -0.0001801354671560064 -5.556163687297865e-06)
(-1.000002648113021 -0.0002040957680340405 -6.225535356747164e-06)
(-1.000015552811258 -0.0002304567438256025 -6.957981998138709e-06)
(-0.3333329860352077 -8.326608624909001e-05 -2.723410906752697e-06)
(-0.9999985216583004 -8.525672307602168e-05 -2.775954644083008e-06)
(-0.9999978256575647 -8.926198740022452e-05 -2.881555235587955e-06)
(-0.9999975919029661 -9.532610659634975e-05 -3.041140976562497e-06)
(-0.9999980620094654 -0.000103505414491334 -3.255842667961068e-06)
(-0.9999995360780193 -0.0001138545710790416 -3.52663199375897e-06)
(-1.000002390950291 -0.0001264051746541202 -3.853758965399988e-06)
(-1.00000709760563 -0.0001411341434653937 -4.235918979379231e-06)
(-1.000014234682012 -0.000157918768676435 -4.669070359950625e-06)
(-1.000024492638909 -0.0001764754315387588 -5.144830880034496e-06)
(-1.000038659696191 -0.0001962803407313806 -5.64842752732965e-06)
(-0.3333335960483084 -7.585932968723352e-05 -2.478382339864982e-06)
(-1.000001274393757 -7.753710900537658e-05 -2.519868748421349e-06)
(-1.000002437194762 -8.090194893206601e-05 -2.602924964977095e-06)
(-1.000004090650272 -8.596863687193589e-05 -2.727627526449581e-06)
(-1.000006472698236 -9.274950347082356e-05 -2.893855458895221e-06)
(-1.00000986258237 -0.0001012414614636196 -3.100979627317084e-06)
(-1.000014591223388 -0.0001114068918104395 -3.347404087924381e-06)
(-1.0000210487942 -0.000123147015580916 -3.629927388004612e-06)
(-1.000029686708218 -0.0001362664904487329 -3.942895159182487e-06)
(-1.000041009685076 -0.000150428669265068 -4.277135471422158e-06)
(-1.000055551772397 -0.0001651026988638283 -4.618714895723435e-06)
(-0.3333341045547539 -6.744222053711718e-05 -2.262568687025353e-06)
(-1.000003564277545 -6.882690278908749e-05 -2.295059829783701e-06)
(-1.000006257185431 -7.159562927983027e-05 -2.359854375726935e-06)
(-1.000009439457505 -7.574370744478622e-05 -2.456501758298925e-06)
(-1.000013334834057 -8.125532186165069e-05 -2.584133102811332e-06)
(-1.000018193466359 -8.809237839857419e-05 -2.741216136962165e-06)
(-1.000024296504408 -9.617871212519455e-05 -2.925209003268817e-06)
(-1.000031957204268 -0.0001053791667366961 -3.132102939673291e-06)
(-1.000041516335696 -0.0001154734088641974 -3.355853330945973e-06)
(-1.000053328847324 -0.0001261251846562671 -3.587718373483293e-06)
(-1.00006773801604 -0.0001368492911104635 -3.81556208868854e-06)
(-0.3333345191698112 -5.822155931189959e-05 -2.07712579866589e-06)
(-1.000005427802501 -5.933719144834994e-05 -2.102448949159397e-06)
(-1.000009353999418 -6.156193862949526e-05 -2.15274787458258e-06)
(-1.000013750342854 -6.487989802605997e-05 -2.227269670948688e-06)
(-1.00001882136919 -6.925993786621723e-05 -2.324737617183746e-06)
(-1.000024785972633 -7.464670770440638e-05 -2.443170206589804e-06)
(-1.000031878011726 -8.094835215999277e-05 -2.579635598097898e-06)
(-1.000040343490939 -8.802095466231541e-05 -2.729943972212981e-06)
(-1.000050432726138 -9.565015357226877e-05 -2.888289467212529e-06)
(-1.000062385567323 -0.0001035311328800858 -3.046870217766385e-06)
(-1.000076407630761 -0.0001112493871484596 -3.195540383232362e-06)
(-0.3333348483095117 -4.837759945797152e-05 -1.92262414706437e-06)
(-1.000006904656864 -4.924915023263304e-05 -1.942374845424833e-06)
(-1.000011799892009 -5.098307940620813e-05 -1.981443306259059e-06)
(-1.000017137456741 -5.35587801002713e-05 -2.03892114153199e-06)
(-1.000023101643735 -5.693966285003069e-05 -2.113339548907248e-06)
(-1.000029881880652 -6.106630965163632e-05 -2.202543043337375e-06)
(-1.000037670751366 -6.584740347648235e-05 -2.303525446037645e-06)
(-1.000046659005681 -7.114871236968446e-05 -2.412235823993973e-06)
(-1.000057026513913 -7.67807824733071e-05 -2.523370646901534e-06)
(-1.0000689280809 -8.248658632403785e-05 -2.630179684653814e-06)
(-1.000082473214445 -8.793119899475048e-05 -2.724329604759222e-06)
(-0.3333351002036605 -3.806454378540983e-05 -1.79924024364464e-06)
(-1.00000803328245 -3.87153204375324e-05 -1.814803588694011e-06)
(-1.000013663629285 -4.000748978105759e-05 -1.845457597374159e-06)
(-1.000019706926297 -4.192061052155087e-05 -1.890227269481599e-06)
(-1.000026328898742 -4.441985620795586e-05 -1.947577150341167e-06)
(-1.00003369371326 -4.745109830928143e-05 -2.015327870379203e-06)
(-1.000041960414444 -5.093456622073939e-05 -2.090553045127565e-06)
(-1.000051276869935 -5.475743481309087e-05 -2.169466525199802e-06)
(-1.000061770600092 -5.876598441600922e-05 -2.247315725450764e-06)
(-1.000073535983844 -6.275839455049969e-05 -2.318304866391851e-06)
(-1.000086617634952 -6.647975933549178e-05 -2.37558102740145e-06)
(-0.3333352821606124 -2.741311095721953e-05 -1.706919749820201e-06)
(-1.000008847602859 -2.786287711753484e-05 -1.719503524271749e-06)
(-1.000015005182093 -2.875456552864371e-05 -1.744184139953189e-06)
(-1.000021549823169 -3.007135207111486e-05 -1.779967679150091e-06)
(-1.000028632131523 -3.178519240210068e-05 -1.825314824774806e-06)
(-1.000036396590665 -3.385356156737631e-05 -1.878088022326195e-06)
(-1.00004497708787 -3.62153438784318e-05 -1.935490849277765e-06)
(-1.000054490423876 -3.878618333574825e-05 -1.994009505191099e-06)
(-1.000065027473651 -4.145380841524814e-05 -2.04937076253196e-06)
(-1.00007664185582 -4.407411191476017e-05 -2.096535627648798e-06)
(-1.000089336300657 -4.646907455763162e-05 -2.129752605016763e-06)
(-0.3333354000477679 -1.653455802186345e-05 -1.645508467451644e-06)
(-1.000009374737019 -1.679823735178939e-05 -1.656183407060883e-06)
(-1.000015872104239 -1.732045276270356e-05 -1.677043797686461e-06)
(-1.000022737553171 -1.809026307153512e-05 -1.707096928551655e-06)
(-1.000030111108237 -1.908964638897001e-05 -1.744821148131176e-06)
(-1.000038123864736 -2.029165308181645e-05 -1.788132617239634e-06)
(-1.000046893036213 -2.165811560228551e-05 -1.834351026691865e-06)
(-1.000056515334472 -2.313712169321744e-05 -1.880173952222484e-06)
(-1.000067058528671 -2.466057529515444e-05 -1.921672454389575e-06)
(-1.000078551249986 -2.614231539510569e-05 -1.95432361836905e-06)
(-1.000090971436183 -2.747742001463191e-05 -1.973098173857888e-06)
(-0.3333354579468336 -3.683778812657578e-06 -1.61484994406752e-06)
(-1.000009633497601 -3.741677877755462e-06 -1.62459387735617e-06)
(-1.000016297207813 -3.856285865744256e-06 -1.643592982296821e-06)
(-1.000023319016795 -4.025080260206e-06 -1.670859075679899e-06)
(-1.000030833521534 -4.243928281688606e-06 -1.7048850955054e-06)
(-1.000038965059879 -4.506689124106322e-06 -1.743621255960897e-06)
(-1.000047822556481 -4.804725043605681e-06 -1.784453410537906e-06)
(-1.000057492883569 -5.126369303276608e-06 -1.824192757125223e-06)
(-1.000068032667353 -5.456424441163601e-06 -1.859088606094374e-06)
(-1.000079458700539 -5.775795091089721e-06 -1.884878167171049e-06)
(-1.000091737439859 -6.061391476297321e-06 -1.896888269202818e-06)
(-0.3333315273670476 -9.315305922363838e-05 -1.465158381507625e-05)
(-0.9999919168713243 -9.5737376634375e-05 -1.501159736415578e-05)
(-0.9999866847747911 -0.0001009720279174785 -1.574051573607049e-05)
(-0.9999817269469774 -0.000108987283323536 -1.685586738637297e-05)
(-0.9999772354536746 -0.0001199732091539119 -1.838317110251449e-05)
(-0.9999734935349706 -0.0001341704656510069 -2.035459288052258e-05)
(-0.9999709140140429 -0.0001518528223471987 -2.28063819156752e-05)
(-0.9999700860141556 -0.0001732957896822821 -2.577426143299313e-05)
(-0.9999718294464157 -0.0001987229871645013 -2.928556081316709e-05)
(-0.9999772529904273 -0.0002282184577531156 -3.334644193860341e-05)
(-0.9999878041247516 -0.0002615898442845929 -3.792228352819561e-05)
(-0.3333323371844668 -8.854763739085686e-05 -1.333557002029431e-05)
(-0.9999955873141261 -9.081727008020142e-05 -1.362623824441286e-05)
(-0.9999928883695889 -9.539811287861979e-05 -1.421248196225954e-05)
(-0.9999905877788389 -0.0001023701387632417 -1.510370599678499e-05)
(-0.9999889151634911 -0.0001118445511285594 -1.631288669626138e-05)
(-0.9999881750854004 -0.0001239509395269954 -1.78549037232486e-05)
(-0.9999887742881827 -0.0001388159998536584 -1.974376472612081e-05)
(-0.9999912514204419 -0.0001565298037706775 -2.198819525058929e-05)
(-0.9999963067311533 -0.0001770942358159112 -2.45849004642931e-05)
(-1.000004825937897 -0.0002003470989269122 -2.750869636320068e-05)
(-1.000017887262552 -0.0002258553856111519 -3.069879078795927e-05)
(-0.3333330404555085 -8.24623937218939e-05 -1.21269370141414e-05)
(-0.9999987673468137 -8.44151415835269e-05 -1.235889973257725e-05)
(-0.9999982376434738 -8.834295921600341e-05 -1.28249463997664e-05)
(-0.9999981733852271 -9.428673485833995e-05 -1.352887925182087e-05)
(-0.9999988162544383 -0.0001022978119520345 -1.447522820504515e-05)
(-1.000000464983696 -0.0001124242987597943 -1.56676373271078e-05)
(-1.000003492878287 -0.0001246899291125199 -1.710636676742709e-05)
(-1.000008364250118 -0.0001390629920936528 -1.878461540964475e-05)
(-1.000015646741572 -0.0001554124407845414 -2.068333006346881e-05)
(-1.000026014140222 -0.0001734484531454861 -2.276420550526491e-05)
(-1.000040231065935 -0.0001926461221972713 -2.496078323995698e-05)
(-0.333333639016374 -7.51433783823249e-05 -1.103895828616597e-05)
(-1.000001467879622 -7.679000456173296e-05 -1.122219494379883e-05)
(-1.000002759962864 -8.009144938192477e-05 -1.158893366649951e-05)
(-1.000004542631575 -8.506035808641924e-05 -1.213930319465795e-05)
(-1.000007052727393 -9.170595468210875e-05 -1.287244836755078e-05)
(-1.000010567202561 -0.0001000212618289531 -1.378515316738092e-05)
(-1.000015412981516 -0.0001099643231192714 -1.486981566568218e-05)
(-1.000021973932114 -0.0001214321585192299 -1.611163953075452e-05)
(-1.000030692192205 -0.0001342263139929578 -1.748492617230816e-05)
(-1.00004205961931 -0.0001480095837638188 -1.894844093750055e-05)
(-1.000056593448114 -0.0001622552114859394 -2.044003208712906e-05)
(-0.3333341382062936 -6.681883983805652e-05 -1.008041098367651e-05)
(-1.000003715417813 -6.817841131523405e-05 -1.022398290994012e-05)
(-1.000006507996999 -7.089624701439587e-05 -1.051022360306517e-05)
(-1.000009787890527 -7.496636577641872e-05 -1.093699389389592e-05)
(-1.000013777158181 -8.037115664327755e-05 -1.150023088657397e-05)
(-1.000018723352133 -8.707042447708715e-05 -1.219286635628821e-05)
(-1.000024903774977 -9.498592893564268e-05 -1.300330292085856e-05)
(-1.000032626240991 -0.0001039809782157341 -1.391340927251929e-05)
(-1.000042224166816 -0.000113835003592744 -1.489603648816089e-05)
(-1.000054043037716 -0.0001242138797086232 -1.591214749204973e-05)
(-1.000068414624647 -0.0001346382878499863 -1.690781475939669e-05)
(-0.3333345453973602 -5.76934311875555e-05 -9.256533765627184e-06)
(-1.000005545286796 -5.878927013336379e-05 -9.368479477614731e-06)
(-1.000009547917325 -6.097405000371479e-05 -9.590782299098989e-06)
(-1.000014017541204 -6.423115671072567e-05 -9.920008049760579e-06)
(-1.000019156786093 -6.852852645211621e-05 -1.035035560413416e-05)
(-1.000025181974853 -7.380984057681075e-05 -1.087286025094798e-05)
(-1.000032323535255 -7.99825223478658e-05 -1.147431597203771e-05)
(-1.000040823006771 -8.690258967902793e-05 -1.213592970723799e-05)
(-1.000050925093698 -9.435683225955691e-05 -1.283176255200695e-05)
(-1.000062862903567 -0.0001020435281313685 -1.352708620794655e-05)
(-1.000076834417517 -0.000109554079539498 -1.417689480687585e-05)
(-0.3333348687655905 -4.794588439738232e-05 -8.569958692120292e-06)
(-1.000006996036628 -4.880227261905289e-05 -8.657304695102449e-06)
(-1.000011949883576 -5.050568201125931e-05 -8.830043312627466e-06)
(-1.000017342366976 -5.303516065513492e-05 -9.084080461828972e-06)
(-1.000023355842047 -5.635371712475745e-05 -9.412807705324023e-06)
(-1.000030177348028 -6.04016260221663e-05 -9.806548085945483e-06)
(-1.000037996524079 -6.50875787959749e-05 -1.025183765631159e-05)
(-1.000047000550903 -7.027797062164609e-05 -1.073057941758014e-05)
(-1.000057365105269 -7.578498398164155e-05 -1.121914153064451e-05)
(-1.000069240284996 -8.135470801029527e-05 -1.168752351230395e-05)
(-1.000082730655085 -8.665733356694183e-05 -1.20987848396423e-05)
(-0.3333351163228381 -3.772943159763294e-05 -8.021556232921517e-06)
(-1.00000810508441 -3.836907392074098e-05 -8.090408390490749e-06)
(-1.000013780805361 -3.963889071911811e-05 -8.225992465951983e-06)
(-1.000019865576317 -4.151830782106468e-05 -8.423937662553659e-06)
(-1.00002652325146 -4.397238922582151e-05 -8.677367748849574e-06)
(-1.000033915836525 -4.694703425878193e-05 -8.976535620382857e-06)
(-1.000042199879855 -5.03627981864875e-05 -9.30837342212554e-06)
(-1.000051520411957 -5.410769035352211e-05 -9.65600278062e-06)
(-1.000062001831087 -5.802959173850646e-05 -9.99827580378551e-06)
(-1.000073735253153 -6.192934039050964e-05 -1.0309452041666e-05)
(-1.000086762148646 -6.555604149660617e-05 -1.055915663062634e-05)
(-0.3333352951938055 -2.717427766318896e-05 -7.611156421078374e-06)
(-1.00000890549575 -2.761644933535486e-05 -7.666843995346831e-06)
(-1.000015099117476 -2.849292266127177e-05 -7.77604146259926e-06)
(-1.000021675865482 -2.978684600574162e-05 -7.934305628693452e-06)
(-1.000028784568485 -3.147019647009591e-05 -8.134759823545748e-06)
(-1.000036567756989 -3.350059751339166e-05 -8.367863595049328e-06)
(-1.000045157180174 -3.581731574264786e-05 -8.621149404295336e-06)
(-1.000054667344455 -3.833674665987279e-05 -8.878970902882473e-06)
(-1.000065186755305 -4.094789833342102e-05 -9.122326233987578e-06)
(-1.000076766734754 -4.350864104729609e-05 -9.328841303676118e-06)
(-1.000089408017546 -4.58437886958764e-05 -9.473018607427167e-06)
(-0.333335411103954 -1.639152100230129e-05 -7.338128812143493e-06)
(-1.000009423729407 -1.66507884360456e-05 -7.385380168940009e-06)
(-1.000015951202031 -1.716417721420171e-05 -7.477697265068506e-06)
(-1.000022842850126 -1.792075506257251e-05 -7.610648719787607e-06)
(-1.000030237002968 -1.890255020242653e-05 -7.777445653569588e-06)
(-1.000038262955797 -2.008274935549889e-05 -7.968797470535888e-06)
(-1.000047036029001 -2.142346815281469e-05 -8.172764503224905e-06)
(-1.000056650994547 -2.287329924532933e-05 -8.374650273670958e-06)
(-1.000067173725474 -2.436495837354605e-05 -8.556989170387966e-06)
(-1.000078631143515 -2.58134904118635e-05 -8.699699156009835e-06)
(-1.000090999863245 -2.71156486357781e-05 -8.780478429487049e-06)
(-0.3333354680387645 -3.652025341397744e-06 -7.201815086349866e-06)
(-1.000009678151964 -3.708960150561282e-06 -7.244951092572617e-06)
(-1.000016369084103 -3.821640378376457e-06 -7.329042195940601e-06)
(-1.000023414238471 -3.987548198303079e-06 -7.449680085136052e-06)
(-1.000030946562778 -4.202565941469062e-06 -7.600144775039031e-06)
(-1.00003908867494 -4.460588071353315e-06 -7.771301880079684e-06)
(-1.000047947730064 -4.75304536973193e-06 -7.951510764032937e-06)
(-1.000057608834676 -5.068388779782986e-06 -8.126584032283259e-06)
(-1.000068126946472 -5.39160545542926e-06 -8.279850402361653e-06)
(-1.000079517425016 -5.703869445206157e-06 -8.392382071310217e-06)
(-1.000091745712937 -5.982459789333095e-06 -8.443452552395852e-06)
(-0.3333316913995569 -9.128791618673285e-05 -2.388337872186516e-05)
(-0.9999926609970373 -9.377016320355472e-05 -2.445977637720171e-05)
(-0.9999879447316792 -9.879429244286089e-05 -2.562593782470149e-05)
(-0.9999835316173052 -0.000106477475721789 -2.740809912121585e-05)
(-0.999979623436702 -0.000116989323901695 -2.984415344370918e-05)
(-0.9999765104084362 -0.0001305418286841051 -3.298124151421942e-05)
(-0.9999746073546443 -0.0001473710033526035 -3.687132947135769e-05)
(-0.9999744968012325 -0.0001677050316111205 -4.15635116725772e-05)
(-0.999976977920593 -0.0001917113363898436 -4.709121397379956e-05)
(-0.9999831165393374 -0.0002194122018659424 -5.345186057007631e-05)
(-0.9999942847217393 -0.0002505561900569824 -6.057614379752417e-05)
(-0.3333324696565796 -8.681661445830716e-05 -2.175059883423184e-05)
(-0.9999961867228314 -8.899881503499082e-05 -2.221644584657633e-05)
(-0.9999938980456995 -9.340021401493824e-05 -2.315537232815184e-05)
(-0.9999920226423694 -0.0001000915054225616 -2.458113848285433e-05)
(-0.9999907936885414 -0.0001091697201172081 -2.651245555914173e-05)
(-0.9999905162315945 -0.0001207452204781133 -2.897018734440228e-05)
(-0.9999915925600836 -0.0001349204974969705 -3.197276901551483e-05)
(-0.9999945492336205 -0.0001517571148532685 -3.552904519737401e-05)
(-1.000000063082011 -0.0001712260138795332 -3.96274968940165e-05)
(-1.000008980356571 -0.0001931355945852256 -4.422069146169727e-05)
(-1.000022318421167 -0.0002170323328127837 -4.920393835893992e-05)
(-0.3333331461999429 -8.088745266832149e-05 -1.979050413646339e-05)
(-0.9999992445965922 -8.276682108609998e-05 -2.016263341151259e-05)
(-0.9999990374220667 -8.654474095104447e-05 -2.090983945328849e-05)
(-0.9999993011234076 -9.225583226557529e-05 -2.203728725406308e-05)
(-1.000000277151758 -9.99421033651694e-05 -2.355078741696181e-05)
(-1.000002261185816 -0.0001096394722890358 -2.545415680072128e-05)
(-1.000005619249019 -0.0001213571559843803 -2.774517186500164e-05)
(-1.000010802317615 -0.0001350477107555649 -3.040967658099358e-05)
(-1.000018356400325 -0.000150565223874022 -3.341336052017671e-05)
(-1.00002892285827 -0.000167609452704998 -3.669080192423955e-05)
(-1.000043220817242 -0.0001856551977912352 -4.013170692544379e-05)
(-0.3333337225688567 -7.373971344293303e-05 -1.802494284367276e-05)
(-1.000001844011116 -7.532594515335951e-05 -1.831918178292443e-05)
(-1.000003387056879 -7.850455746405405e-05 -1.890775923820402e-05)
(-1.000005420004784 -8.328418417979928e-05 -1.979021922852661e-05)
(-1.000008177328565 -8.966825624812123e-05 -2.096417421838947e-05)
(-1.000011931284214 -9.764259152955646e-05 -2.242308143613525e-05)
(-1.00001700079855 -0.0001071572899693507 -2.415299602931791e-05)
(-1.00002375730151 -0.000118101837796036 -2.612810585709969e-05)
(-1.000032624823961 -0.0001302725078171639 -2.830489319378182e-05)
(-1.000044070330488 -0.000143331894894238 -3.061491921565171e-05)
(-1.000058578769426 -0.0001567621243661052 -3.295655536904529e-05)
(-0.333334203687751 -6.559613799650408e-05 -1.646849777337397e-05)
(-1.000004009440617 -6.690698319911103e-05 -1.669925072135697e-05)
(-1.000006995661093 -6.952611536359399e-05 -1.71590709016337e-05)
(-1.000010464822191 -7.344515175899967e-05 -1.784404963761833e-05)
(-1.000014635559107 -7.864315435668351e-05 -1.874694855426245e-05)
(-1.000019750219537 -8.507607502084003e-05 -1.985546629972091e-05)
(-1.000026078495286 -9.266194458534844e-05 -2.114981093689235e-05)
(-1.000033917535463 -0.0001012614672766254 -2.259952982693009e-05)
(-1.000043586457424 -0.0001106540608288853 -2.415961746503948e-05)
(-1.000055412474819 -0.0001205102101149432 -2.576606817983721e-05)
(-1.000069705300455 -0.0001303624703559157 -2.733129959732625e-05)
(-0.3333345964656615 -5.665716229463765e-05 -1.513000980344252e-05)
(-1.000005773988482 -5.771456044012517e-05 -1.531008320819723e-05)
(-1.000009925225439 -5.982175190011334e-05 -1.566750558403158e-05)
(-1.000014537043777 -6.296080911427639e-05 -1.619641603436494e-05)
(-1.000019808251827 -6.709796385706543e-05 -1.688698314755895e-05)
(-1.000025950074443 -7.217516378155141e-05 -1.772413563172104e-05)
(-1.000033186190806 -7.809862027885489e-05 -1.868585387515358e-05)
(-1.000041749417754 -8.472445231255703e-05 -1.974105195817935e-05)
(-1.000051873566799 -9.184194093769823e-05 -2.084714728550961e-05)
(-1.000063778740015 -9.915562947249185e-05 -2.194753279475022e-05)
(-1.000077648291181 -0.0001062686061601424 -2.296934214976366e-05)
(-0.3333349086198436 -4.709851558493113e-05 -1.401406661803554e-05)
(-1.000007174030221 -4.792543374954031e-05 -1.415467812017872e-05)
(-1.000012241909767 -4.956954707902025e-05 -1.443263255867898e-05)
(-1.000017741034148 -5.200927862780697e-05 -1.484109395781956e-05)
(-1.000023849913775 -5.520692542848591e-05 -1.536906434339136e-05)
(-1.000030750875959 -5.910225914140808e-05 -1.600050504743749e-05)
(-1.000038627783817 -6.360410583550186e-05 -1.671320338824075e-05)
(-1.000047660856122 -6.858021662425868e-05 -1.747744864842041e-05)
(-1.000058017634583 -7.384609976979202e-05 -1.825463699373271e-05)
(-1.000069839140042 -7.915403665181851e-05 -1.899600759597445e-05)
(-1.000083220471164 -8.418425588363497e-05 -1.964182271055606e-05)
(-0.3333351477444365 -3.707149857623548e-05 -1.312235829014578e-05)
(-1.000008245019976 -3.768948614135691e-05 -1.323327523258145e-05)
(-1.000014009070317 -3.891584500781414e-05 -1.345160009697553e-05)
(-1.000020174422126 -4.072977230151769e-05 -1.377010807025879e-05)
(-1.00002690123234 -4.309616375897116e-05 -1.417745506611718e-05)
(-1.000034347254849 -4.596103222942472e-05 -1.465760155732708e-05)
(-1.000042664148289 -4.924563910257968e-05 -1.518910777769652e-05)
(-1.000051991411688 -5.28396974228682e-05 -1.574437414575412e-05)
(-1.000062447386827 -5.65942828587574e-05 -1.628894279542257e-05)
(-1.000074116896129 -6.031547369156364e-05 -1.67810300474721e-05)
(-1.000087035392535 -6.376021573784039e-05 -1.717152178388986e-05)
(-0.3333353206115566 -2.670527541503995e-05 -1.245483740632131e-05)
(-1.000009018376652 -2.713266931664298e-05 -1.254460065939713e-05)
(-1.000015282195927 -2.797954549915724e-05 -1.272054355698165e-05)
(-1.000021921352899 -2.922901709467857e-05 -1.297536028231098e-05)
(-1.000029081173702 -3.085313023198921e-05 -1.329775881317156e-05)
(-1.000036900351303 -3.280983276932049e-05 -1.367210079054161e-05)
(-1.00004550644901 -3.503917749814188e-05 -1.40779935122736e-05)
(-1.000055009499878 -3.745906823926517e-05 -1.44899071104927e-05)
(-1.000065493410852 -3.996104725922941e-05 -1.487691981890197e-05)
(-1.000077005072921 -4.240686785461623e-05 -1.520272741571156e-05)
(-1.00008954140371 -4.4626872135023e-05 -1.542608535686564e-05)
(-0.3333354326737043 -1.611059735262541e-05 -1.201065481186838e-05)
(-1.00000951929006 -1.636127684534466e-05 -1.208685457909261e-05)
(-1.000016105418095 -1.685748923652136e-05 -1.223566818935472e-05)
(-1.000023048006859 -1.758832947285067e-05 -1.244982958509847e-05)
(-1.000030482048015 -1.853593794587379e-05 -1.27182186386088e-05)
(-1.000038533302116 -1.967378559131212e-05 -1.302563819086015e-05)
(-1.000047313383759 -2.09645612962994e-05 -1.335259064475227e-05)
(-1.000056913281449 -2.235786386295397e-05 -1.367512260635071e-05)
(-1.000067395186442 -2.378801104097051e-05 -1.396482837469122e-05)
(-1.000078782721005 -2.517241119015518e-05 -1.418912318987177e-05)
(-1.000091049972035 -2.641108374334953e-05 -1.431191186601819e-05)
(-0.3333354877312182 -3.589657429969855e-06 -1.178885892302616e-05)
(-1.000009765268535 -3.644714944073219e-06 -1.185843984773354e-05)
(-1.000016509248555 -3.753643079917871e-06 -1.199402819122887e-05)
(-1.000023599801609 -3.913935250565653e-06 -1.218840457931756e-05)
(-1.000031166629821 -4.121506246512758e-06 -1.243057371077813e-05)
(-1.000039328974653 -4.370323121172247e-06 -1.270560772436489e-05)
(-1.000048190527282 -4.65195460463979e-06 -1.299451065077453e-05)
(-1.000057832949623 -4.955085469937482e-06 -1.327416962610817e-05)
(-1.000068307958179 -5.265066720383483e-06 -1.351747630445309e-05)
(-1.000079628145623 -5.563599961178111e-06 -1.369371629863767e-05)
(-1.00009175702002 -5.828683132591448e-06 -1.376933127388434e-05)
(-0.3333319253559037 -8.858791613430822e-05 -3.234436937539244e-05)
(-0.999993721664683 -9.09255006926736e-05 -3.310444462060309e-05)
(-0.9999897383947757 -9.565164445302076e-05 -3.464054872355452e-05)
(-0.9999860958131543 -0.0001028657985964189 -3.698377270530004e-05)
(-0.9999830076368675 -0.0001127100481932432 -4.017842667305504e-05)
(-0.9999807716815704 -0.0001253581022733207 -4.427840198072727e-05)
(-0.9999798027938496 -0.0001409960708214087 -4.934078608767482e-05)
(-0.9999806708945331 -0.0001597904126495738 -5.54151779647131e-05)
(-0.9999841423792022 -0.000181836519632217 -6.252652827737603e-05)
(-0.9999912195248877 -0.0002070793771031808 -7.064870115996049e-05)
(-1.000003166333988 -0.000235196401140225 -7.966559633953243e-05)
(-0.3333326588407357 -8.430858871300022e-05 -2.948067172010784e-05)
(-0.9999970422581018 -8.636665772288052e-05 -3.009588241866125e-05)
(-0.9999953375155336 -9.051358242251349e-05 -3.133463453012345e-05)
(-0.9999940647578996 -9.680751218654776e-05 -3.32125719908328e-05)
(-0.9999934609640977 -0.0001053264220294282 -3.575040488877888e-05)
(-0.9999938304100517 -0.0001161550303594438 -3.896999455693475e-05)
(-0.9999955673909589 -0.0001293639080470754 -4.288807826379175e-05)
(-0.999999179531459 -0.0001449776174258229 -4.750667216413263e-05)
(-1.000005308793356 -0.0001629278875960874 -5.27989505181675e-05)
(-1.000014744395129 -0.0001829874310437242 -5.86893063065844e-05)
(-1.000028417593568 -0.0002046807902793542 -6.50265789338024e-05)
(-0.3333332974019123 -7.860367858869574e-05 -2.684621035549364e-05)
(-0.9999999266583899 -8.037868951760173e-05 -2.733836616213056e-05)
(-1.000000179249239 -8.394364565855751e-05 -2.832569328481028e-05)
(-1.000000908652761 -8.93247113449291e-05 -2.981321507735755e-05)
(-1.00000235515504 -9.655137770625545e-05 -3.180580977294544e-05)
(-1.000004809167588 -0.0001056433676405178 -3.430463403585683e-05)
(-1.000008625380916 -0.0001165908785196731 -3.730171401021574e-05)
(-1.000014234874082 -0.0001293263049197971 -4.077218988507807e-05)
(-1.00002215219282 -0.0001436854583807269 -4.466367462651434e-05)
(-1.000032972427571 -0.0001593567604620818 -4.888233156128753e-05)
(-1.000047350814986 -0.000175818475529166 -5.327574527825471e-05)
(-0.3333338421813555 -7.17027289343086e-05 -2.447097645164749e-05)
(-1.000002382225172 -7.320292963264325e-05 -2.486065926803882e-05)
(-1.000004283537361 -7.620672481056803e-05 -2.56395215111531e-05)
(-1.000006672489947 -8.071736198367294e-05 -2.680567260500382e-05)
(-1.000009779620394 -8.673055014574156e-05 -2.835398725280667e-05)
(-1.000013869910865 -9.422261809577417e-05 -3.027314356125296e-05)
(-1.000019250328238 -0.0001031334135865868 -3.254134216619084e-05)
(-1.00002627411132 -0.0001133430779525212 -3.512049164059574e-05)
(-1.000035339248898 -0.0001246420801144229 -3.794871527105911e-05)
(-1.000046877412277 -0.0001366946809571165 -4.09312474077255e-05)
(-1.000061328382715 -0.0001489976467532462 -4.393022522176301e-05)
(-0.3333342975357121 -6.3820516331692e-05 -2.237525189974238e-05)
(-1.000004430654269 -6.506184493426666e-05 -2.26812565152434e-05)
(-1.00000769368159 -6.754027001543156e-05 -2.32905731681006e-05)
(-1.000011432478096 -7.124421246817993e-05 -2.419710110881466e-05)
(-1.000015860411152 -7.614835160563159e-05 -2.538986395289415e-05)
(-1.000021212031029 -8.220365917965819e-05 -2.685072514435833e-05)
(-1.000027745840773 -8.932353170454392e-05 -2.855121639341207e-05)
(-1.00003574354061 -9.736581524899517e-05 -3.044844066461527e-05)
(-1.000045503795824 -0.0001061109096163192 -3.24801108765431e-05)
(-1.00005732799421 -0.0001152369437726896 -3.45589814819507e-05)
(-1.000071495043176 -0.0001242943884443018 -3.65672661195732e-05)
(-0.3333346697337591 -5.515134177791472e-05 -2.057159586026165e-05)
(-1.000006101978855 -5.615381993928633e-05 -2.081068626684538e-05)
(-1.000010465904895 -5.815023886279747e-05 -2.128491826084173e-05)
(-1.000015280571537 -6.112095261379125e-05 -2.198585071572405e-05)
(-1.000020739067105 -6.503000351942833e-05 -2.289945343637233e-05)
(-1.000027045090964 -6.981720213694577e-05 -2.40044475529937e-05)
(-1.000034412484307 -7.538746452961947e-05 -2.527008941446877e-05)
(-1.000043061489231 -8.159757702985719e-05 -2.665345243841705e-05)
(-1.000053210377421 -8.824095962856058e-05 -2.809635332261657e-05)
(-1.000065060891105 -9.503167966951071e-05 -2.952222313600998e-05)
(-1.000078775969334 -0.0001015899784782002 -3.083344898685009e-05)
(-0.3333349658544854 -4.586653104343677e-05 -1.906680277741625e-05)
(-1.000007429551353 -4.665129293002225e-05 -1.925370842033273e-05)
(-1.000012660814265 -4.821063704252276e-05 -1.962293095756661e-05)
(-1.000018312242753 -5.052219883516786e-05 -2.016490141633111e-05)
(-1.000024556660676 -5.354742018326413e-05 -2.08642947650837e-05)
(-1.000031569492039 -5.722557287368684e-05 -2.169888936541011e-05)
(-1.000039526215666 -6.146594890932294e-05 -2.263810809541781e-05)
(-1.000048597035709 -6.613855431591989e-05 -2.364133368923473e-05)