/*--------------------------------*- C++ -*----------------------------------*\
  =========                 |
  \\      /  F ield         | OpenFOAM: The Open Source CFD Toolbox
   \\    /   O peration     | Website:  https://openfoam.org
    \\  /    A nd           | Version:  7
     \\/     M anipulation  |
\*---------------------------------------------------------------------------*/
FoamFile
{
    version     2.0;
    format      ascii;
    class       volScalarField;
    location    "0";
    object      mag(grad(Phi));
}
// * * * * * * * * * * * * * * * * * * * * * * * * * * * * * * * * * * * * * //

dimensions      [0 1 -1 0 0 0 0];

internalField   nonuniform List<scalar> 
12678
(
0.333331456118968
0.9999915378600219
0.9999860398120469
0.9999808006688841
0.9999760071473583
0.999971938489934
0.9999690060238727
0.99996780176223
0.999969155803667
0.9999741984917541
0.9999844157813919
0.3333322809675612
0.9999952827060009
0.9999923724647792
0.9999898525889915
0.9999879506496403
0.9999869707180221
0.9999873215767471
0.9999895478525522
0.9999943616600652
1.000002668959886
1.000015579390206
0.3333329964462056
0.9999985252965131
0.9999978296455763
0.9999975964511346
0.9999980673714615
0.9999995425656726
1.000002398946832
1.000007107573954
1.000014247161903
1.000024508223551
1.000038678974384
0.3333336046894719
1.00000127740293
1.000002440470705
1.00000409434928
1.000006477003631
1.000009867712044
1.000014597434648
1.000021056383222
1.000029695999994
1.000041021008151
1.000055565411756
0.3333341113850966
1.000003566648741
1.000006259751167
1.00000944232905
1.000013338138565
1.000018197350179
1.000024301133747
1.00003196276138
1.000041523008104
1.000053336807117
1.000067747386548
0.3333345242608897
1.000005429565153
1.000009355896653
1.000013752450006
1.000018823770317
1.000024788761614
1.000031881291267
1.000040347368353
1.000050437304554
1.000062390930978
1.000076413823606
0.3333348518256286
1.000006905871481
1.000011801193594
1.000017138893067
1.000023103266994
1.000029883747569
1.000037672921878
1.000046661539542
1.000057029464573
1.000068931486143
1.000082477083784
0.3333351023818691
1.000008034033529
1.000013664431277
1.000019707806735
1.000026329887174
1.000033694841056
1.00004196171374
1.0000512783714
1.000061772329231
1.000073537955694
1.000086619847361
0.3333352832921941
1.000008847992503
1.00001500559702
1.000021550276886
1.000028632638324
1.00003639716544
1.000044977745489
1.000054491178007
1.000065028334904
1.000076642829207
1.000089337382516
0.3333354004619143
1.000009374879479
1.000015872255642
1.000022737718253
1.000030111291961
1.000038124072202
1.000046893272421
1.000056515603888
1.000067058834569
1.00007855159358
1.000090971815599
0.3333354579711003
1.000009633505921
1.000016297216599
1.000023319026291
1.000030833531992
1.000038965071554
1.000047822569615
1.000057492898371
1.000068032683966
1.000079458718994
1.000091737460026
0.3333315407053616
0.9999919215668589
0.9999866899964177
0.9999817330282627
0.9999772428195982
0.9999735027432263
0.9999709258040911
0.9999701013624863
0.9999718496212187
0.9999772795888567
0.9999878390588501
0.3333323492122848
0.9999955915308701
0.9999928930210192
0.9999905931327728
0.9999889215512189
0.9999881829268096
0.9999887841181421
0.9999912639130811
0.9999963227146049
1.000004846385643
1.000017913238623
0.333333050876181
0.9999987709861474
0.9999982416279597
0.9999981779217448
0.9999988215916319
1.000000471426041
1.000003500798362
1.000008374095724
1.000015659031793
1.000026029441112
1.00004024993296
0.3333336476689448
1.000001470890939
1.000002763237326
1.000004546322872
1.000007057015204
1.000010572299648
1.000015419138053
1.000021981434626
1.000030701353137
1.000042070751782
1.000056606819632
0.333334145055835
1.000003717794217
1.000006510565353
1.000009790760286
1.000013780454024
1.000018727217023
1.000024908370569
1.000032631743625
1.000042230756688
1.000054050878434
1.000068423830688
0.3333345505186647
1.00000554705876
1.000009549822216
1.000014019653198
1.000019159187692
1.000025184757839
1.000032326799582
1.000040826856284
1.0000509296274
1.000062868201166
1.000076840518589
0.3333348723239521
1.000006997264925
1.000011951197957
1.000017343814575
1.00002335747418
1.000030179220234
1.000037998694743
1.000047003077853
1.000057368039717
1.000069243662355
1.000082734482705
0.3333351185546092
1.000008105853224
1.000013781624804
1.000019866473666
1.000026524255868
1.000033916978787
1.000042201191328
1.000051521922319
1.000062003564679
1.000073737223771
1.000086764353
0.3333352963883551
1.000008905906471
1.000015099553626
1.000021676340577
1.000028785096743
1.000036568353123
1.000045157858745
1.000054668118684
1.000065187635222
1.000076767724692
1.000089409113144
0.3333354115877461
1.000009423895302
1.000015951377291
1.000022843039659
1.000030237211859
1.000038263189197
1.000047036291868
1.000056651291192
1.000067174058888
1.000078631514496
1.000091000269385
0.333335468136569
1.000009678185086
1.000016369118262
1.000023414274169
1.000030946600488
1.000039088715083
1.000047947772971
1.000057608880539
1.000068126995282
1.000079517476495
1.000091745766472
0.3333317047554715
0.9999926656926339
0.9999879499402424
0.9999835376617331
0.9999796307254382
0.9999765194731147
0.999974618893791
0.9999745117278646
0.9999769974064509
0.9999831420391755
0.9999943179458655
0.3333324816719302
0.9999961909300272
0.9999939026756134
0.9999920279536827
0.9999907999990685
0.9999905239410076
0.9999916021730637
0.9999945613799541
1.000000078526353
1.000008999984808
1.000022343182644
0.3333331566016146
0.9999992482250342
0.9999990413856773
0.9999993056218012
1.000000282423288
1.000002267520165
1.000005626997653
1.000010811898828
1.000018368293276
1.000028937577416
1.000043238855665
0.3333337312125124
1.000001847015906
1.000003390317103
1.000005423668718
1.000008181568477
1.000011936302589
1.000017006831474
1.000023764616697
1.000032633709718
1.000044081070668
1.000058591598923
0.3333342105488301
1.000004011818312
1.000006998225232
1.000010467678462
1.000014638827156
1.000019754035551
1.000026083011943
1.000033922917592
1.000043592871148
1.000055420067699
1.000069714170524
0.3333346016240687
1.000005775771156
1.000009927137476
1.00001453915694
1.000019810645433
1.00002595283607
1.000033189414977
1.000041753201567
1.000051878001342
1.000063783896453
1.000077654201026
0.3333349122418228
1.000007175278813
1.000012243242472
1.000017742496734
1.000023851555742
1.000030752750448
1.00003862994614
1.000047663360356
1.000058020527654
1.000069842452915
1.000083224207248
0.3333351500641623
1.000008245817778
1.000014009917999
1.000020175346372
1.000026902261452
1.00003434841844
1.000042665476153
1.000051992931568
1.00006244912084
1.000074118855764
1.000087037572458
0.3333353219139909
1.000009018823422
1.000015282668254
1.000021921864236
1.000029081738059
1.000036900982985
1.000045507161945
1.000055010306403
1.000065494319896
1.000077006087575
1.000089542518371
0.3333354332794112
1.00000951949695
1.000016105635035
1.000023048239028
1.000030482300674
1.000038533580468
1.000047313692646
1.000056913624871
1.00006739556686
1.000078783138463
1.000091050423182
0.333335487959011
1.000009765345488
1.000016509327527
1.000023599883545
1.000031166715571
1.000039329064915
1.000048190622526
1.000057833049995
1.000068308063393
1.00007962825485
1.000091757131794
0.3333319386969254
0.9999937263463879
0.999989743569431
0.9999861017878233
0.9999830147959197
0.9999807805193557
0.9999798139512774
0.9999806851967185
0.9999841608665385
0.9999912434616512
1.000003197165867
0.3333326708063318
0.9999970464405951
0.9999953421028389
0.9999940699953154
0.9999934671500114
0.9999938379154238
0.999995576678204
0.9999991911691652
1.000005323459891
1.000014762859274
1.000028440654254
0.3333333077507992
0.9999999302624502
1.000000183173679
1.000000913086623
1.000002360321917
1.000004815336223
1.000008632873277
1.000014244067784
1.000022163512747
1.000032986319143
1.000047367689407
0.3333338507915073
1.000002385213525
1.000004286769772
1.000006676106842
1.000009783783421
1.00001387480798
1.000019256175846
1.000026281151186
1.000035347736475
1.000046887592202
1.000061340447057
0.3333343043962574
1.000004433028
1.00000769623364
1.000011435308683
1.00001586363271
1.000021215770151
1.000027750237584
1.000035748744029
1.000045509952786
1.000057335230733
1.000071503435706
0.3333346749310298
1.000006103772012
1.000010467822124
1.000015282681079
1.000020741443699
1.000027047816218
1.000034415645122
1.000043065173359
1.000053214665129
1.000065065842074
1.000078781604503
0.3333349695553897
1.000007430824868
1.00001266216891
1.000018313722283
1.000024558311958
1.000031571364784
1.000039528360855
1.000048599502199
1.000058940727306
1.000070680229225
1.000083899872622
0.333335195343388
1.000008446920549
1.000014337695165
1.000020618313488
1.000027443501435
1.000034964809361
1.000043326812373
1.000052661055404
1.000063077240057
1.000074651291869
1.000087410257061
0.3333353586205678
1.000009181186552
1.000015545782125
1.00002227425524
1.000029506804829
1.000037376535723
1.000046004951633
1.000055495651963
1.000065925979343
1.000077336558356
1.000089718983211
0.333335464489507
1.000009657041555
1.00001632741392
1.000023342924425
1.000030833687951
1.000038920322836
1.000047709079929
1.000057285503838
1.000067706526146
1.000078991101779
1.000091109803181
0.3333355164881424
1.000009890785519
1.00001671097341
1.000023866519849
1.000031482388571
1.000039672910795
1.000048536763887
1.000058150651696
1.000068561658168
1.000079778461617
1.00009176188858
1.000001740199486
1.000034450046458
1.000057667767381
1.000073908472633
1.000085102992439
1.000092697436595
1.000097754338886
1.000101039923464
1.000103093230542
1.000104277601154
1.000104816581039
1.000005400505804
1.000036835238517
1.000059197362663
1.000074867897508
1.000085684461605
1.000093029716231
1.000097923574687
1.000101103955618
1.000103091392395
1.000104237497922
1.000104758935127
1.000012278618089
1.000041332803544
1.000062088674629
1.000076683733281
1.000086784511014
1.000093656220465
1.000098239340485
1.000101218736914
1.000103080093403
1.000104152854983
1.00010464063885
1.000021607789107
1.000047459795375
1.000066040568695
1.000079169577092
1.000088288658538
1.000094507405164
1.000098660074564
1.000101359987262
1.000103045484455
1.000104015715773
1.000104456389899
1.00002780534873
1.000060118191732
1.000081778220604
1.0000960188068
1.000105174347986
1.000110903414504
1.000114370162247
1.00011638146001
1.000117486096848
1.000118043942454
1.000118271895754
1.000031511245033
1.000062392878605
1.000083141349796
1.000096803678352
1.000105593860258
1.000111093275023
1.00011441678777
1.000116339939113
1.000117391799478
1.000117920133613
1.000118134907913
1.000038400045667
1.000066641193047
1.000085692770775
1.000098271851677
1.00010637434601
1.000111439878717
1.000114491966428
1.00011624769317
1.000117199135689
1.000117671251052
1.000117860902122
1.000047614682609
1.000072345851141
1.000089124834039
1.000100242299375
1.000107410726943
1.000111883603486
1.000114563228307
1.000116088371257
1.0001169011394
1.000117295474125
1.000117450329069
1.000064527464301
1.00011436606337
1.000093553971457
1.000135999650914
1.000111400191329
1.000147124996043
1.000121953605895
1.000151960302855
1.000127840202907
1.000153174117999
1.000130823204793
1.000152449153935
1.000132079675535
1.00015084258383
1.000132389560413
1.000149015027332
1.000132262672432
1.000147374872801
1.000132022271145
1.000146168256167
1.000131858189878
1.000145533787147
1.000067980004687
1.000117073787012
1.000095491187097
1.00013729163686
1.000112436415969
1.000147636012066
1.000122453446094
1.00015204671476
1.000128022564343
1.000153036158361
1.000130819646651
1.000152198173268
1.000131968950721
1.000150539180989
1.000132218448042
1.00014869081483
1.000132058683296
1.000147044968386
1.00013180152561
1.000145838535715
1.00013163047802
1.000145205219449
1.000074282412041
1.000121921173312
1.000099052799319
1.000139592902957
1.00011434045612
1.00014851723833
1.000123362254126
1.000152151757379
1.000128339224238
1.000152730210119
1.00013078833746
1.00015168559049
1.000131736646243
1.000149931609367
1.000131872789787
1.000148046525962
1.000131651333758
1.000146391653127
1.000131362773382
1.00014518665503
1.000131178689588
1.000144556047305
1.000082531686595
1.000128006722823
1.000103722133453
1.000142436624906
1.000116823488757
1.000149532995881
1.000124521667818
1.000152161827009
1.000128705929648
1.000152206672832
1.000130687008739
1.000150895057183
1.000131364206706
1.000149020542265
1.000131347328627
1.000147091339918
1.000131042688021
1.000145428199049
1.000130711896688
1.000144227731242
1.000130510332541
1.000143602080989
1.000178157752837
1.000254426012372
1.000187296635442
1.000245999145956
1.00018838059935
1.000233768475931
1.000185335741095
1.000220845676784
1.000180475061698
1.000208708325074
1.000175136758511
1.000198037368062
1.00017008526086
1.000189113321086
1.000165750269372
1.000182019630154
1.000162367780928
1.000176750733064
1.000160062922705
1.000173270003791
1.000158897815758
1.000171540477044
1.000179516368485
1.000253932984588
1.000187590066367
1.000244957120944
1.00018815218134
1.000232600191004
1.000184878309776
1.000219729808717
1.000179937457826
1.000207706712249
1.000174590109121
1.000197159432964
1.000169559772074
1.000188346476125
1.000165254894894
1.000181343074689
1.000161900601381
1.000176141417889
1.000159616590882
1.000172704929815
1.000158462415291
1.000170997289661
1.000181831751426
1.000252720304089
1.000187973646919
1.000242782865901
1.000187607073755
1.000230251849454
1.000183932920013
1.000217519102611
1.000178858481552
1.000205733951722
1.000173504537753
1.000195433959129
1.000168520895083
1.000186840069477
1.000164277483034
1.000180013740875
1.000160979587734
1.000174943653678
1.000158736952809
1.00017159365279
1.000157604401005
1.000169928784014
1.00018430407457
1.00025015028902
1.000188092853245
1.000239279933169
1.000186603312198
1.000226714825242
1.000182455721799
1.000214264362717
1.000177238031807
1.00020285349363
1.000171898302044
1.000192921473259
1.000166993606101
1.000184647515525
1.000162844643824
1.00017807789508
1.000159631040589
1.000173197976322
1.000157449553994
1.000169972833584
1.000156348806665
1.00016836968578
1.000341245693579
1.000423724191477
1.00051191856996
1.000309250748339
1.000371484456505
1.000426487543132
1.000280855088919
1.000326020222789
1.000365152107918
1.000256601004177
1.000290112461061
1.000318616248572
1.000236437147711
1.00026190218771
1.000283213351974
1.000220056556532
1.000239924184821
1.000256320309797
1.000207081771365
1.000223051398028
1.000236075626356
1.000197154408352
1.000210437569172
1.00022116590209
1.000189974186984
1.000201465883682
1.000210677439872
1.000185313420811
1.000195707968566
1.000203996754825
1.000183020685615
1.000192894099523
1.000200746322238
1.000338249010868
1.00041654029744
1.00050252330352
1.000306550718273
1.00036691488197
1.000420101903261
1.000278587196194
1.000322583480228
1.000360618904867
1.000254749109833
1.000287509670316
1.000315331116821
1.000234935478126
1.000259906169483
1.000218832310802
1.000280779682498
1.000238366319632
1.000254473449883
1.000206069132137
1.000221807175813
1.000234634558584
1.000196297489671
1.000209414005508
1.00022000307338
1.000189226092134
1.000200591716935
1.000209699492067
1.000184634120015
1.000194926265513
1.000203131771564
1.0001823746697
1.000192156590661
1.000199934927289
1.000332512768564
1.000378576287769
1.000483888973352
1.000301243196981
1.00035813665971
1.000407901414415
1.000274146466753
1.000315948533014
1.000351935114391
1.000251132461887
1.000282470239045
1.000309005875005
1.000232003689113
1.000256030938675
1.000276072543959
1.000216440043772
1.000235333745779
1.000250887751804
1.000204087732739
1.000219379249376
1.00023182783837
1.000194618457307
1.000207412407944
1.000217732310966
1.000187758488139
1.000198879291841
1.000207785767285
1.000183300255492
1.000193393053389
1.000201436588837
1.000181105541095
1.000190709105707
1.000198343525604
1.000322241971954
1.000394509887409
1.000430488376642
1.00029323776028
1.000345649046016
1.000391340329359
1.000267693019127
1.000306538277477
1.000339838114863
1.000245919110165
1.000275301977061
1.00030009183378
1.000227779939073
1.000250495407203
1.000269387886647
1.00021298778887
1.000230983317852
1.000245764736029
1.00020122178999
1.00021588242543
1.00022779746086
1.000192184211894
1.000204519620706
1.000214457784588
1.000185626459003
1.00019639743582
1.000205016804311
1.000181359608112
1.000191166427551
1.000198977955332
1.000179257601229
1.000188604732639
1.000196032508024
0.3333305250132357
0.9999873026968685
0.9999788423204303
0.999970434219752
0.999962187235693
0.9999543123879305
0.9999471734058135
0.9999413547940319
0.9999377517463102
0.9999376835724429
0.999943024154372
0.3333306285258864
0.9999877733732117
0.9999796441021221
0.9999715932475352
0.999963740165893
0.9999563059037975
0.9999496626249804
0.9999443995037324
0.9999414087597381
0.9999419927274917
0.9999479850796836
0.3333308291229569
0.9999886853948958
0.99998119638021
0.9999738342445864
0.9999667374612661
0.9999601448506036
0.999954442758666
0.9999502266774166
0.9999483797862194
0.9999501677562611
0.9999573415885354
0.3333311148099266
0.9999899835897123
0.9999834028560928
0.9999770129418546
0.9999709766749507
0.9999655544641368
0.9999611480756545
0.9999583561486894
0.999958042498048
0.9999614147717275
0.9999701035267612
0.3333295105709193
0.9999826794858552
0.99997094528196
0.9999589715764233
0.9999467434437541
0.9999343454253733
0.9999220193017067
0.9999102491245259
0.9998998851702485
0.9998923202603042
0.9998897290581059
0.33332963522862
0.9999832476118585
0.9999719181414923
0.9999603891521205
0.9999486634737593
0.9999368446857444
0.9999251942915121
0.9999142148511789
0.9999047696227712
0.9998982503637265
0.9998968013894174
0.3333298766125765
0.9999843475442587
0.9999737998911769
0.999963127129322
0.99995236461284
0.9999416502034834
0.9999312800015755
0.9999217874926981
0.9999140545037044
0.9999094619706868
0.9999100833326863
0.3333302199460382
0.9999859110998309
0.9999764706851285
0.9999670040624771
0.9999575886450067
0.9999484052987324
0.9999397914805739
0.999932314358719
0.9999268698478646
0.9999248119030889
0.999928110210435
0.9999563794811919
0.9999619200493347
0.9999722860475971
0.999986281694801
0.9998953935997121
0.9999036262898798
0.9999189506132158
0.9999395692274762
0.9999804777017538
0.9999864141431639
0.9999973667176548
1.000011958737164
0.9999134176116511
0.9999226928194387
0.9999396828551134
0.9999623266531064
1.000018596955127
1.000075542815017
1.00002464279185
1.000080830601014
1.000035440040417
1.000090196331826
1.000049507914461
1.000101913153935
0.999964647485885
0.9999482318155686
0.9999589311690954
1.000019541094057
0.9999768558041232
1.000036925308831
1.000000224352471
1.000058101708535
1.000154643579565
1.000242533528173
1.000157969439762
1.000243220365298
1.000164008450718
1.000218778885754
1.000170998633774
1.000256063915065
1.000114815958295
1.000197114679022
1.00020441274487
1.000118430198334
1.000210641277222
1.000262219253503
1.000102125688263
1.000310317237028
1.000385953909622
1.000369525595753
1.000611940572902
1.000655342404094
1.000387072493377
1.00034922426698
1.000593912875807
1.000297819141284
1.000565480181841
1.000752522049443
1.00097176065742
1.000344000470706
1.000649278101317
1.000740385543071
1.00046261842782
1.000372137854731
1.000581386450905
1.000319505754956
1.000516527158563
1.000525353477257
1.000521860414475
1.000729415496879
1.000345255652454
1.00035900066381
1.000559114125881
1.000673712719208
1.000622459495105
1.000585200348132
1.000901691713076
1.000917022017114
1.000636709890327
1.000952733387062
0.3333284349500333
0.9999777680159866
0.999962513962576
0.9999466399743776
0.9999299556140466
0.9999123487846471
0.9998938425966359
0.9998746877597129
0.9998555111999065
0.9998375519622107
0.9998230313198324
0.3333285825627589
0.9999784422393482
0.9999636743894806
0.9999483440214835
0.9999322881817007
0.9999154266357875
0.9998978194627263
0.9998797590364803
0.9998619156606726
0.9998455652023239
0.9998329386042105
0.3333288681784107
0.9999797465292791
0.9999659169089478
0.9999516318249241
0.9999367788308905
0.9999213354253593
0.999905427417082
0.9998894192126822
0.9998740520486635
0.9998606512910265
0.9998514263302682
0.3333292739211314
0.9999815981508583
0.9999690950924885
0.9999562793850214
0.9999431043324504
0.9999296207868601
0.9999160354010868
0.9999027973053595
0.9998907257721873
0.9998811941740383
0.9998763858220847
0.9998157424236317
0.9998277415166681
0.9998498917137771
0.9998796577551675
0.999822029410352
0.9998355800196381
0.9998610582269474
0.9998954900403164
0.9999154735074054
0.9998645920553884
0.9998633807478914
0.999887609224023
0.9998913988147444
0.9999552333964384
0.999929671757584
1.000048768758746
0.9999271482210816
1.000096911399347
0.9999697326547203
1.000107426282445
1.000014121751862
1.000082029078676
1.000152758129243
1.000538999497164
1.000792213455592
1.000356705568783
1.000533672910037
1.000779223478101
1.000348304606547
1.0004980728127
1.000753066372684
1.000622333567826
1.000703557932298
1.000960100729603
1.000885007401087
1.001038382829401
1.001015933785538
1.000744638193713
1.000924459566685
1.000913615904453
1.000881462060417
1.000690898912131
1.000798878481134
1.000686472190104
1.000959065090724
0.9998351008221898
1.000717515507351
1.000904155703406
1.000738433726832
1.000869985086727
1.000759645038603
1.000743406838955
1.000661321819889
1.000678965585226
1.000916109181905
1.000898779932269
1.000812191314526
1.000309681127401
1.000465734883563
1.000371180280095
1.000256344201457
1.0003236166796
1.000393940908134
1.000396785800498
1.000530779567222
1.000727852980099
1.000721286633336
1.00055565535016
1.000732275318347
1.000641768157092
1.000730169924529
1.000784222025529
1.000982242186842
1.000969924239384
1.001104161689194
1.001096869522234
1.000917631008357
1.001005462054901
1.000448594069353
1.00037326506003
0.9998625126207275
1.0003384352557
1.000405620981631
1.000262085869537
1.00040284485194
1.000717454934419
1.00052151372713
1.000711613938148
1.000633766100379
1.00071635077563
1.000556077745545
1.000724887567085
1.000961278683234
1.000766954510295
1.000925611366431
1.001080168626859
1.001054906460174
1.000971110077726
1.000902279139383
1.000713493694989
1.000645438439103
0.9995421965583093
1.000551496498043
1.000705025094415
1.000618520381187
1.000690049305728
1.000910547476484
1.000717461437828
1.000855951208504
1.001022071081376
1.000982885632601
1.000864470257471
1.00091114068835
1.000599055632104
1.000541630088169
1.000670897522794
1.000831781971859
1.000939136470307
1.000806788045383
1.000905292876991
1.001169209622124
1.0011782448348
1.001060891238944
1.001024667290516
1.001280033157967
1.001348633323146
1.000976531964817
1.001247404520312
1.001192301585923
0.333325063899082
0.9999623172384554
0.9999357362187742
0.999906899519545
0.9998747631810793
0.9998381379657174
0.9997956453517293
0.9997456782382055
0.9996863826270267
0.9996157268461805
0.9995320092575609
0.3333261733112086
0.9999674113231725
0.9999446049511554
0.9999201527102165
0.9998933429383899
0.9998634217713781
0.9998296027114321
0.9997911057475357
0.9997472560946135
0.999697705544543
0.9996428885003359
0.3333273110588422
0.9999726262481653
0.9999536438733184
0.9999335690074669
0.9999119781909012
0.9998884804336079
0.9998627596524751
0.9998346551254012
0.999804307916747
0.9997724191347931
0.9997406805614587
0.3333252865595227
0.9999633403002183
0.9999375217607214
0.9999095780554166
0.9998785384275104
0.9998433119979729
0.9998026577018088
0.9997551648835964
0.9996992598085908
0.9996332877790741
0.9995559191998841
0.3333263707940742
0.9999683170407735
0.9999461788794964
0.9999224982181713
0.9998966188578704
0.9998678585556033
0.9998355262104924
0.9997989706221836
0.9997576900301105
0.9997115634439823
0.9996613318708503
0.33332748319695
0.9999734141546406
0.9999550066737802
0.9999355853798463
0.9999147668763974
0.9998922094772753
0.9998676589721682
0.9998410322962503
0.9998125661558115
0.9997830773181355
0.9997544163933845
0.3333257165007827
0.9999653150869985
0.9999409637063879
0.9999147306371999
0.9998857796543213
0.9998531983237439
0.9998159917117394
0.9997730985752147
0.9997234546417456
0.9996661889694838
0.9996015311485149
0.3333267523592858
0.9999700665000772
0.9999492152526145
0.9999270143989525
0.9999029097593753
0.9998763491694401
0.9998468123413682
0.9998138754940388
0.9997773384843732
0.9997374645609001
0.9996953846089521
0.3333278160221787
0.9999749371751678
0.9999576379551223
0.9999394717283396
0.9999201288030227
0.9998993570239011
0.9998770127426132
0.9998531487282964
0.9998281624217548
0.9998030401024296
0.9997797411238616
0.999968108664042
0.9999458222195756
0.9999219795446305
0.9998959198409315
0.9998669579824374
0.9998344031055327
0.9997976076562207
0.9997560698450788
0.9997096340688054
0.9996588571507566
0.3333272931555414
0.9999725440143606
0.9999535065999554
0.9999333774725707
0.9999117356401847
0.999888195050587
0.9998624476094143
0.999834342361443
0.9998040247362255
0.999772173201949
0.9997403754114079
0.3333282882667143
0.9999770965839345
0.9999613618042265
0.9999449561949949
0.9999276662638904
0.9999093541537345
0.9998900135122337
0.9998698601515595
0.9998494769652932
0.9998300412648214
0.9998136729769683
0.9994683971331625
0.9995844753218516
0.9997123128376331
0.9995029635018132
0.9996093702719983
0.9997302173782708
0.9996573417950104
0.9996529808534134
0.9997617139049809
0.999604523773704
0.9997115489769324
0.999803953738613
0.9992516072913352
0.9995217677570442
0.9998225792434261
0.9992811595771346
0.9995665332768546
0.9997179355251359
0.999440726804821
0.9995988092508586
0.9997552670297434
0.999476826919842
0.9998111145709433
0.9998068005916961
0.9992246318418239
0.9994698822689368
0.9993547763945814
0.9996029387853707
0.9997574215665112
0.9996935824019701
0.9997538787883532
0.9997789450915343
0.999708441729231
0.9998941980968313
0.999256999169807
0.9994983793748266
0.9994083448911565
0.9993214508643429
0.9995668946092248
0.9997487606283303
0.9994348016023538
0.9997122893677016
1.000016473747806
0.9998730966995191
1.000082600532281
0.9999206425967199
1.000098572756269
0.999499572254521
0.9993618277878964
0.9996408638068527
0.9994121818167553
1.000028683088745
0.9996654189535749
1.000048542366566
0.999891178303136
1.000131634323121
0.9997318141334636
1.000319063894885
1.002088533475811
1.000096030308069
1.000524075330587
1.001576259455571
1.001642222830491
1.000157524180903
1.000912183303419
1.001531486502799
0.9995900632269988
1.000216443709765
1.002232895873052
1.000960932253154
1.002161444222171
1.000107711529521
1.000971044030606
1.000172249945464
1.000903888082315
1.001424320054355
1.000287824424715
1.000559348917263
1.00099240436348
1.000968307973269
1.001986305741174
1.000126270105946
1.000972469689629
1.001522641216401
1.00020277782719
1.000555755166213
1.001357328521238
1.001548939172762
1.001129774333796
1.002252333384636
1.001666821605744
1.001469081352547
1.002393553090513
1.001732804047218
1.001813579894113
1.001678092182256
1.002597228769559
1.002493895240115
0.9992553969897637
0.9992929972196291
0.99913873828885
0.9992677397844201
0.9993939709942364
0.9995340250217042
0.9990308120293447
0.9993721851259341
0.9996757644154466
0.9995168674491394
0.9993920377840476
0.9993116513064024
0.9993920978219992
0.999179020563432
0.9992540910778634
0.9994266902296066
0.9994240803021731
0.9993470443571029
0.9994047539897769
0.999754410118442
0.9999516034076681
0.9998090240123436
0.9998038847436668
0.9997842163687778
0.9997562559961221
0.9998973318336541
1.000032698602855
1.000108384793632
1.000114532095202
0.9998535828723407
0.9998303103550387
0.9999895817099413
1.000044700037856
1.000130211456974
1.000042655600808
1.000117747301481
0.9998647364593036
0.9999059825715576
0.9999048729177924
0.9999385015189158
1.000140331298636
1.000184998302128
1.000148281383746
0.9999249049328885
0.9999991445230237
0.9999880622930578
1.000151998944059
0.999256032538817
0.9992915876051277
0.9993360062453214
0.9992960032726024
0.9995456133527311
0.9993691666079012
0.9993272774860233
0.9993926950607942
0.9996261459527467
0.9996548157806658
0.99973326169976
0.9994547058826075
0.9997114414804954
0.9994206116205899
0.9999457769773478
0.9999658787634054
0.9996783532772621
0.9997793949934599
0.9994928983356037
0.9997564291246972
0.9994575027633806
0.9993130749392226
0.9994008665546247
0.9993615298722874
0.9994655991843343
0.9996911757328103
0.9995746742293266
0.9993958207590676
0.9995042612500754
0.99962457936521
0.9995688263196808
0.9994881535793469
0.999748216566921
0.9998005953943636
0.9994765808381852
0.9995651929802696
0.9997971484734017
0.9999783992881571
0.9997020283831984
0.9997932559371636
0.9998459852566965
0.9995154455524295
0.9996069303848276
0.9994370993254381
0.9995579352501166
0.9995070826169841
0.9996412660910136
0.9997363659938907
0.9998768296888463
0.9995472395924242
0.9996850284306747
0.9997358519744755
0.9995205169580529
0.9996362649449767
0.9998221244533092
0.9997800026281569
0.9996005341180919
0.9997156128588739
1.000111079834923
0.9998341797383551
0.9999498139316961
0.9998675090397933
0.9999406102374371
0.9996432602223958
0.9997603691889008
0.9995972384074174
0.9996865061349623
0.9999223818925079
0.9997312175491291
0.9996888935336536
0.9998376326071957
0.9997541618094372
0.9999874842033277
0.9999628417257886
0.9997996166163063
1.000029415288922
1.000048332148683
0.9997691375994342
1.000150872729626
1.000365631581073
1.000118565899585
1.000352520553432
1.000495556106493
1.00095447768209
1.000953031868337
1.000290514974675
1.000945823645107
1.000485531668079
1.00095644723068
1.001692201377136
1.0016619367791
1.002048208409134
1.001207290066524
1.001124162415248
1.001208527206754
1.001133461029898
1.000110909506993
1.000229565249476
1.000303632914779
1.000405687470974
1.000396266272373
1.000379294808516
1.000382090377445
1.000933100168474
1.000517447862697
1.000938138253426
1.000555632230272
1.00075211514034