/*--------------------------------*- C++ -*----------------------------------*\
  =========                 |
  \\      /  F ield         | OpenFOAM: The Open Source CFD Toolbox
   \\    /   O peration     | Website:  https://openfoam.org
    \\  /    A nd           | Version:  7
     \\/     M anipulation  |
\*---------------------------------------------------------------------------*/
FoamFile
{
    version     2.0;
    format      ascii;
    class       volScalarField;
    location    "0";
    object      p;
}
// * * * * * * * * * * * * * * * * * * * * * * * * * * * * * * * * * * * * * //

dimensions      [0 2 -2 0 0 0 0];

internalField   nonuniform List<scalar> 
12678
(
4.452122590781862e-05
4.627258795398772e-05
4.979902581415287e-05
5.517245173111147e-05
6.248729190156774e-05
7.180104278790768e-05
8.305619752069523e-05
9.596530577492196e-05
0.0001098437151608788
0.000123376830689372
0.000134319863095476
3.93897058601346e-05
4.086018591298256e-05
4.373622682728549e-05
4.797020689913499e-05
5.350323356246925e-05
6.020548845086861e-05
6.78020737442661e-05
7.577271673050681e-05
8.321910516457422e-05
8.869885583492749e-05
9.003679970123622e-05
3.344173216750625e-05
3.458039773588088e-05
3.672899187873331e-05
3.975115999119801e-05
4.347626175051637e-05
4.764624249575156e-05
5.18530737513144e-05
5.546053159099737e-05
5.751040633504316e-05
5.661932493751301e-05
5.088322849004279e-05
2.703924726775146e-05
2.782854359824897e-05
2.923660576422274e-05
3.106731094077259e-05
3.307697413462791e-05
3.493139389578046e-05
3.615818374977303e-05
3.609202467788434e-05
3.381647400815038e-05
2.811141835560784e-05
1.742366739305991e-05
2.054657154745214e-05
2.099555920458907e-05
2.169914276833099e-05
2.242589651884776e-05
2.289123060107841e-05
2.272577902424942e-05
2.144277967813659e-05
1.840449690547161e-05
1.279270147684243e-05
3.592314200441507e-06
-1.039720170602412e-05
1.430738300509429e-05
1.444458790607136e-05
1.451410461245273e-05
1.426791113791423e-05
1.340453657119415e-05
1.154826741877283e-05
8.229878854371988e-06
2.870234856561305e-06
-5.228229458558246e-06
-1.687450042653895e-05
-3.295585257582964e-05
8.628855135343541e-06
8.495822997264992e-06
8.023289772655131e-06
6.959416031219309e-06
5.001758027002692e-06
1.785800628216387e-06
-3.12348545618604e-06
-1.023516757029965e-05
-2.012664236522658e-05
-3.342297722468571e-05
-5.075442627223132e-05
3.771981322653761e-06
3.418113699744408e-06
2.507357773544289e-06
7.9145722861458e-07
-2.024269145841296e-06
-6.284983383397117e-06
-1.238662129035303e-05
-2.077039784532761e-05
-3.19081262714256e-05
-4.627443613014773e-05
-6.430194327116049e-05
-5.337092888458113e-08
-5.745230361080321e-07
-1.814538173928345e-06
-4.015123222886269e-06
-7.460237851243715e-06
-1.247473694314657e-05
-1.941898259760181e-05
-2.867746093210031e-05
-4.063884459001389e-05
-5.56649997136981e-05
-7.404703364050029e-05
-2.690234127006553e-06
-3.323314955048652e-06
-4.782367258547669e-06
-7.302909474896242e-06
-1.11594684242224e-05
-1.666072145289473e-05
-2.414056960610467e-05
-3.394328159084022e-05
-4.640076222981522e-05
-6.180038520056128e-05
-8.034274031397829e-05
-4.034552686840212e-06
-4.723642001330395e-06
-6.29192147451727e-06
-8.971273989450673e-06
-1.303083657000304e-05
-1.877043265540226e-05
-2.65099582672832e-05
-3.657293127029208e-05
-4.926257569470039e-05
-6.482934538264295e-05
-8.342982586884174e-05
4.381988840096477e-05
4.554576094575687e-05
4.901159104481423e-05
5.427623625003658e-05
6.141718733178569e-05
7.047061861903571e-05
8.135321843820183e-05
9.37482279787364e-05
0.0001069411233627925
0.0001195922858783487
0.0001294428448371863
3.860752009955922e-05
4.004863194823225e-05
4.285950540361286e-05
4.698341987127233e-05
5.234983056735613e-05
5.881495687634703e-05
6.608835556023755e-05
7.363432056955406e-05
8.054247741909792e-05
8.536711095015696e-05
8.59461352781612e-05
3.261089546564746e-05
3.371975443494825e-05
3.580489022687493e-05
3.872422995832177e-05
4.229997252613187e-05
4.626608974186485e-05
5.020685032843376e-05
5.348046448670497e-05
5.512831307211151e-05
5.377628404832073e-05
4.754549656493215e-05
2.618539813549825e-05
2.694666227782721e-05
2.829679074706797e-05
3.003662066601423e-05
3.191881557003499e-05
3.360566390219382e-05
3.462252731740496e-05
3.430476426881973e-05
3.174194227720805e-05
2.572852759285097e-05
1.473847483447066e-05
1.968862119766515e-05
2.011256628152131e-05
2.076562514913686e-05
2.141531804667319e-05
2.177595432929542e-05
2.147773394038596e-05
2.003509912147836e-05
1.681446973830591e-05
1.10064218912692e-05
1.611362760249587e-06
-1.25469509094743e-05
1.345791171759633e-05
1.357352786749641e-05
1.360040735979099e-05
1.329085869016246e-05
1.234404321588224e-05
1.038577542733955e-05
6.950011707458921e-06
1.463383151259033e-06
-6.762242470087163e-06
-1.852164234253154e-05
-3.468221899290408e-05
7.794858604632589e-06
7.643628451587329e-06
7.135873898290249e-06
6.020993768376172e-06
3.998276936945748e-06
7.058858216345528e-07
-4.287044344705023e-06
-1.148332541407071e-05
-2.145139953674349e-05
-3.480418968096394e-05
-5.215645003582721e-05
2.955796599764492e-06
2.586712830470098e-06
1.647085409168032e-06
-1.095456991292625e-07
-2.975479573369937e-06
-7.292593244380767e-06
-1.345227510632156e-05
-2.188957822815933e-05
-3.306825786899948e-05
-4.745288094764877e-05
-6.546420753542469e-05
-8.53078804813775e-07
-1.387085152032829e-06
-2.651029254771089e-06
-4.884502818381958e-06
-8.368730715369308e-06
-1.34250029880704e-05
-2.040906398679341e-05
-2.969955224042035e-05
-4.167798980592566e-05
-5.669789877829557e-05
-7.504123766186237e-05
-3.477495427709622e-06
-4.12180749112304e-06
-5.601430404937159e-06
-8.1496023030045e-06
-1.20379433377154e-05
-1.7571459937193e-05
-2.507948414379001e-05
-3.490074869830661e-05
-4.736070234405808e-05
-6.273956549167292e-05
-8.123053904417309e-05
-4.815157296737342e-06
-5.514654099082156e-06
-7.101810460311716e-06
-9.806160568039737e-06
-1.389386755303103e-05
-1.966105428396546e-05
-2.742309921249459e-05
-3.749816780478519e-05
-5.018339785898808e-05
-6.572269341540153e-05
-8.426611219820295e-05
4.240057903111428e-05
4.407386360285452e-05
4.741626399892258e-05
5.246174742386829e-05
5.925553868291645e-05
6.779336910203574e-05
7.794324524345569e-05
8.933333448415957e-05
0.00010119306531892
0.0001121366888849143
0.0001198871641391199
3.70382285611674e-05
3.842019144572198e-05
4.110066309673714e-05
4.500571318696963e-05
5.004280380713889e-05
5.604199281424974e-05
6.268406271565576e-05
6.940534719989664e-05
7.527483777260723e-05
7.884454815686939e-05
7.798572881446069e-05
3.095288659212624e-05
3.200242452535837e-05
3.396176920043449e-05
3.66781524154261e-05
3.996042918772069e-05
4.352789544710194e-05
4.695101229097485e-05
4.95787685806739e-05
5.045387632230437e-05
4.822305681678182e-05
4.106028292453262e-05
2.448738772770394e-05
2.519324262106564e-05
2.642917757015871e-05
2.799046769710801e-05
2.962314641437537e-05
3.098331922147008e-05
3.159282920919918e-05
3.078945969697068e-05
2.767581906484547e-05
2.107627540033643e-05
9.519163944200715e-06
1.798643340159666e-05
1.836109037715987e-05
1.891492086411281e-05
1.941367337490538e-05
1.956988217259199e-05
1.901338079757127e-05
1.726155781936411e-05
1.368963992201474e-05
7.506133091350657e-06
-2.257651701066371e-06
-1.673014278780489e-05
1.177522101797761e-05
1.184846809368143e-05
1.179181725049248e-05
1.135843701924618e-05
1.024899695498037e-05
8.092631894287388e-06
4.42990244684789e-06
-1.300876665798868e-06
-9.769020937534288e-06
-2.174128342756648e-05
-3.804625194455728e-05
6.144607837339144e-06
5.957734799456222e-06
5.381101842027745e-06
4.166685927472107e-06
2.017357841327633e-06
-1.423257197383992e-06
-6.577634041851993e-06
-1.393611319144364e-05
-2.404943988534751e-05
-3.750672136774164e-05
-5.489254123925151e-05
1.341965446572819e-06
9.431231349305898e-07
-5.288768875825019e-08
-1.888898282622484e-06
-4.852409995986219e-06
-9.278719483990437e-06
-1.555016260647926e-05
-2.408960109028031e-05
-3.534494148038406e-05
-4.976107428908627e-05
-6.773571739062684e-05
-2.433583049509947e-06
-2.992700812977269e-06
-4.303325360795375e-06
-6.600823144917803e-06
-1.016096724298514e-05
-1.529796444111262e-05
-2.235842054265582e-05
-3.170945123801179e-05
-4.371855067871009e-05
-5.872294838591274e-05
-7.698683174864215e-05
-5.032961278249089e-06
-5.699196844253656e-06
-7.218916126109361e-06
-9.820825505635126e-06
-1.377077843866615e-05
-1.936651630540888e-05
-2.692835644653699e-05
-3.678414607845373e-05
-4.924668539264782e-05
-6.458223630443495e-05
-8.296964863871228e-05
-6.357267572751628e-06
-7.077071283394228e-06
-8.701005777137608e-06
-1.145394745643524e-05
-1.559617112832388e-05
-2.141648828613243e-05
-2.922137586903843e-05
-3.931848459084327e-05
-5.199303503066224e-05
-6.747615320977599e-05
-8.590521768855375e-05
4.023618076069582e-05
4.182725043963476e-05
4.498022954028387e-05
4.969471237000976e-05
5.597148993284197e-05
6.375120967860175e-05
7.283672301699945e-05
8.278441357837698e-05
9.275418590524282e-05
0.0001013112343666422
0.0001061837462555327
3.467613356587898e-05
3.596872874864964e-05
3.845410252893487e-05
4.203487577666644e-05
4.658868058053099e-05
5.191061310351016e-05
5.764401707185201e-05
6.319070815448973e-05
6.759801312929076e-05
6.942591747805476e-05
6.660981365359665e-05
2.847768092121068e-05
2.943916165110888e-05
3.121294142920567e-05
3.363196575638025e-05
3.648739356865696e-05
3.947952007661253e-05
4.216188178616163e-05
4.387416124052396e-05
4.366609065868324e-05
4.022060492218362e-05
3.179473092804421e-05
2.196615657240363e-05
2.259061277252799e-05
2.365953813884791e-05
2.496108271818725e-05
2.623291386368432e-05
2.71238168794833e-05
2.715263555197101e-05
2.566322334477651e-05
2.177996706430077e-05
1.437341053459705e-05
2.052725485057283e-06
1.546823920636805e-05
1.577096832574094e-05
1.618049158865853e-05
1.646068416150988e-05
1.632240883425872e-05
1.539610509154771e-05
1.320479864234168e-05
9.138009120573382e-06
2.431744764713276e-06
-7.836732490621964e-06
-2.272633005125402e-05
9.292101715446987e-06
9.303794321254792e-06
9.126137793992078e-06
8.51404985317848e-06
7.171021297004144e-06
4.731765136518886e-06
7.472770184708025e-07
-5.326314339264897e-06
-1.413030698647101e-05
-2.639047543393353e-05
-4.287953405595879e-05
3.71353157738541e-06
3.47504036910763e-06
2.79891068843447e-06
1.441216094526632e-06
-8.895393226671926e-07
-4.541304108960274e-06
-9.923856823444113e-06
-1.750896926985909e-05
-2.782140041168445e-05
-4.141572044358564e-05
-5.883328578422942e-05
-1.03271063300162e-06
-1.474547699512426e-06
-2.55182662243213e-06
-4.501859841807606e-06
-7.604886487734987e-06
-1.218632663215721e-05
-1.861506207601902e-05
-2.729601231665278e-05
-3.865398015976417e-05
-5.310544311339985e-05
-7.101517429773913e-05
-4.757469647609751e-06
-5.352803118789366e-06
-6.730591911003849e-06
-9.11988578115266e-06
-1.278833418063774e-05
-1.803964435714025e-05
-2.520696318286914e-05
-3.464055324593289e-05
-4.668753951855055e-05
-6.166167462357284e-05
-7.980175681064478e-05
-7.319002559020646e-06
-8.016815689777196e-06
-9.594149006111134e-06
-1.227298805761035e-05
-1.631065746834459e-05
-2.19941963420024e-05
-2.963070820951027e-05
-3.953217203057467e-05
-5.199305921914883e-05
-6.725953709330874e-05
-8.548995447975547e-05
-8.623203643953634e-06
-9.372236140982261e-06
-1.104897685034061e-05
-1.387141738621371e-05
-1.809115110139438e-05
-2.398624756225703e-05
-3.185016271699626e-05
-4.197524179855303e-05
-5.462945136426596e-05
-7.002552827521598e-05
-8.828273670892946e-05
0.0001391822116538932
8.416890500410024e-05
3.784201841129891e-05
-9.678434733333019e-08
-3.049218408349229e-05
-5.435868125225265e-05
-7.268024204808374e-05
-8.631300837862918e-05
-9.594552122782784e-05
-0.0001020884443210489
-0.0001050770702385406
0.0001329990160246342
7.925507293098746e-05
3.402475149846973e-05
-3.034472441585757e-06
-3.275032050554408e-05
-5.610479513740283e-05
-7.404916511664175e-05
-8.741175107894174e-05
-9.685945863746939e-05
-0.0001028874153752911
-0.0001058209735199488
0.0001209880473014254
6.976802742983909e-05
2.665466105745187e-05
-8.715550671077992e-06
-3.712599248587371e-05
-5.949527292930079e-05
-7.671260295159706e-05
-8.955358611503663e-05
-9.864404561328378e-05
-0.0001044495425136298
-0.0001072764799164689
0.0001040344087090616
5.637764987738255e-05
1.622799739119616e-05
-1.677751085155423e-05
-4.335598725581773e-05
-6.433869040861233e-05
-8.052988816907731e-05
-9.263283038275869e-05
-0.0001012167403990972
-0.0001067063089223644
-0.0001093816794459004
0.0001328869988878341
6.719824731795349e-05
1.478260083448855e-05
-2.617645692313116e-05
-5.766747748825431e-05
-8.151608744240889e-05
-9.925900420395201e-05
-0.0001121170181583614
-0.0001210116859365093
-0.0001265965586445233
-0.0001292879439306111
0.0001252134885624441
6.149435946263841e-05
1.059020554414711e-05
-2.925043642854811e-05
-5.992817124015272e-05
-8.319292313952962e-05
-0.0001005224606324263
-0.0001130938255297991
-0.0001217973843482205
-0.0001272655708533762
-0.0001299016995019112
0.0001105846076719291
5.060878181771551e-05
2.558976474664493e-06
-3.516017923278088e-05
-6.428781816187694e-05
-8.643553435117867e-05
-0.0001029718705069856
-0.0001149919380349945
-0.0001233272911749474
-0.0001285703707930012
-0.0001310998164866284
9.039842303878332e-05
3.54775291276967e-05
-8.675364729685772e-06
-4.347112231415594e-05
-7.044775763545821e-05
-9.103699912627531e-05
-0.0001064618375054349
-0.0001177066374410438
-0.0001255227407464818
-0.0001304477165958682
-0.0001328262155405959
0.0001090886980423047
5.883025525269798e-05
3.484668518921686e-05
-1.822013878456194e-05
-2.092332332334575e-05
-7.236278360557357e-05
-6.227027755030602e-05
-0.0001100588571809748
-9.25901810615428e-05
-0.0001360744749755417
-0.0001145878891127178
-0.0001538682850182131
-0.0001303358460260888
-0.0001659024894090238
-0.0001413711673172312
-0.0001738974696120896
-0.0001487954946230477
-0.0001790279593342492
-0.0001533603373214128
-0.0001820654110857296
-0.0001555315164729965
-0.0001834749331294859
9.991316432249308e-05
4.889454209806964e-05
2.856557827265817e-05
-2.453789160452324e-05
-2.526441374083748e-05
-7.646279776036589e-05
-6.528861748588641e-05
-0.000112741971180515
-9.470254719559397e-05
-0.0001378397996467607
-0.0001160807052487889
-0.0001550367413288864
-0.0001314076382309761
-0.0001666833929075078
-0.0001421609213785155
-0.0001744290743246773
-0.0001494024114843158
-0.0001794034309519044
-0.0001538579291413046
-0.0001823499902744926
-0.0001559780060590135
-0.0001837177468868267
8.29625706506614e-05
3.087316133651389e-05
1.675489948115407e-05
-3.629260191582777e-05
-3.35062214343281e-05
-8.418287173826426e-05
-7.105283005383469e-05
-0.0001178276748741088
-9.875330604682174e-05
-0.0001412003770779431
-0.0001189528834152871
-0.0001572682291056944
-0.0001334757331599492
-0.0001681786077485251
-0.0001436888104969782
-0.0001754491865456394
-0.0001505793394046671
-0.0001801252923803328
-0.0001548246788799583
-0.000182897933918424
-0.0001568464188801535
-0.000184185692796346
6.027549835969093e-05
7.443232577853224e-06
6.261792858860371e-07
-5.207896874496847e-05
-4.489111905582663e-05
-9.470521946476419e-05
-7.907648413988855e-05
-0.0001248196653543933
-0.0001044253646211113
-0.0001458489435746577
-0.0001229950556391127
-0.0001603699038984513
-0.0001363996480850628
-0.0001702653176984771
-0.0001458581492326412
-0.0001768778296880923
-0.0001522567756491411
-0.0001811393011444525
-0.0001562068041183538
-0.0001836695097034172
-0.0001580901669197927
-0.0001848455721005314
-2.622970526591113e-05
-0.0001495596087498279
-9.596639495940804e-05
-0.0001992984543997883
-0.0001411030425598617
-0.0002264119493228575
-0.000169788211108854
-0.0002399809437959098
-0.0001876754978631292
-0.0002456891980608168
-0.0001985830567092161
-0.0002470540711491173
-0.0002050523081335509
-0.0002462334312465114
-0.0002087557077430739
-0.0002445407570650156
-0.0002107773646011195
-0.0002427665526403944
-0.0002117990545512484
-0.0002413752980128467
-0.0002122184594057819
-0.0002406230167985767
-3.512636360264438e-05
-0.0001564661974812691
-0.0001014327671459707
-0.0002030167361798793
-0.0001444195198159093
-0.0002283439466466912
-0.0001717845248432241
-0.0002409145526813944
-0.0001888630748792505
-0.0002460676237212347
-0.0001992752264787441
-0.0002471278725471731
-0.0002054416777807475
-0.0002461438498074628
-0.0002089614754712226
-0.0002443664672078927
-0.0002108742744128641
-0.000242550431294468
-0.0002118354308214618
-0.0002411400377191456
-0.0002122278696157555
-0.0002403805265731161
-5.177322257033566e-05
-0.0001693145373894209
-0.0001116235694699158
-0.0002098782567760473
-0.0001506221907377279
-0.0002318909282480882
-0.0001755295194849066
-0.0002426090724652686
-0.0001910944488493759
-0.0002467313766513173
-0.0002005753761923372
-0.0002472264662156681
-0.0002061707941262119
-0.0002459400945761265
-0.0002093435075037423
-0.0002440067302505322
-0.0002110501551428378
-0.0002421142958359486
-0.000211896536173762
-0.0002406693549091756
-0.0002122378093877568
-0.0002398969557445047
-7.355863815029628e-05
-0.0001857184265695629
-0.0001251753270553325
-0.0002187793860640309
-0.0001589461749048484
-0.0002364787152442658
-0.0001805811635835916
-0.000244754767240564
-0.0001941107597889243
-0.0002475140672886911
-0.0002023309034688275
-0.0002472627660139831
-0.0002071492989766379
-0.0002455789954874316
-0.000209847935373019
-0.0002434425345724771
-0.0002112722207361904
-0.0002414521933300516
-0.0002119610959855968
-0.0002399640004241614
-0.0002122320769624473
-0.0002391758788562079
-0.0003105329175346417
-0.000495115493090458
-0.0006927907906713667
-0.0003247032521482465
-0.0004620352155761074
-0.0005970440310651101
-0.0003242799669645505
-0.0004267593206129006
-0.0005226352696117085
-0.0003169105656346945
-0.0003944407672736273
-0.0004645044635116022
-0.0003069092263767362
-0.0003666616405893622
-0.0004192226204727853
-0.0002966106576079262
-0.0003436955511714363
-0.0003842078532593297
-0.0002872389686735694
-0.0003253297308525148
-0.0003575031697587275
-0.0002794105975801813
-0.000311204271460087
-0.0003376504165193693
-0.0002734177052810322
-0.0003009596702528442
-0.0003235929538427555
-0.0002693864028316861
-0.0002943007758901003
-0.0003146003970532144
-0.0002673638454787024
-0.0002910231929563038
-0.0003102144868759758
-0.0003135024160536184
-0.0004908672076370157
-0.0006844082108624968
-0.000325552477505722
-0.0004589291301186071
-0.0005905833418597226
-0.0003242124534010004
-0.0004242507651464718
-0.0005178114378194419
-0.0003164421915300152
-0.0003923707097240396
-0.0004608968385666482
-0.0003062902095440696
-0.0003649557245224322
-0.0002959620518868999
-0.0004164904906581439
-0.0003422894232906913
-0.0003821024972144415
-0.0002866139768611683
-0.0003241613313910559
-0.0003558441508214269
-0.0002788267216867944
-0.0003102161153028747
-0.0003363043985806444
-0.000272874075063226
-0.0003001001319573808
-0.0003224583847739744
-0.0002688730119785055
-0.0002935236496112021
-0.0003135964932558255
-0.0002668664082743313
-0.0002902862410475048
-0.0003092729761806407
-0.0003189297312654912
-0.0004795089118105664
-0.0006695063837869598
-0.0003269913629720627
-0.0004526916502616642
-0.0005780242057711559
-0.00032395900635903
-0.0004193504048757773
-0.0005084300383196481
-0.0003154516484615829
-0.0003883177495768491
-0.0004538813644628137
-0.0003050324119826385
-0.0003616090402521008
-0.0004111682968967569
-0.0002946629549092882
-0.0003395282922194106
-0.0003779926404126839
-0.0002853708345056095
-0.0003218656103562503
-0.0003525992336420999
-0.0002776696245924883
-0.0003082734444917315
-0.0003336671845764375
-0.0002717988703903641
-0.0002984094066173092
-0.0003202323288828338
-0.0002678586552159215
-0.0002919943592710619
-0.0003116247873619749
-0.0002658839981333308
-0.0002888356482325191
-0.0003074228014877536
-0.0003254776165083358
-0.0004801274791047405
-0.0006325589495654845
-0.0003287626738453833
-0.0004459895475985071
-0.0005584476419739758
-0.0003233529065458631
-0.000412576553322448
-0.000494893203862856
-0.0003138505927152676
-0.0003824790902174745
-0.0004438353851487315
-0.0003031043131306383
-0.0003567498156274088
-0.0004035267344811594
-0.0002927136937269981
-0.0003355113666998273
-0.0003720706342449083
-0.0002835252602957746
-0.0003185223950807318
-0.0003479083607797254
-0.0002759614875736015
-0.0003054417398777005
-0.0003298441319710297
-0.0002702164506621502
-0.0002959427320763348
-0.0003169978951680841
-0.0002663681226941452
-0.000289761572227826
-0.0003087551252755917
-0.0002644413600033392
-0.0002867168798452573
-0.0003047276141607841
4.85068852298119e-05
5.045008756933832e-05
5.447422749147069e-05
6.079923884934347e-05
6.971117237483936e-05
8.151285994232894e-05
9.645463367034251e-05
0.000114620058555026
0.0001357394850135881
0.0001589005284793072
0.0001821366601211412
4.79241830447732e-05
4.985059217733022e-05
5.382779908092719e-05
6.005847112690996e-05
6.880615120846619e-05
8.034423972811762e-05
9.488525059395151e-05
0.0001124662982639616
0.0001327653715876821
0.0001548187636642644
0.0001766137949922914
4.67267964972355e-05
4.861615154584906e-05
5.249381198829712e-05
5.852927983318177e-05
6.694282410831925e-05
7.795136657925512e-05
9.169477568160711e-05
0.0001081197945423538
0.0001267982097545333
0.0001466514859566637
0.0001655535506089304
4.485952979679715e-05
4.668577353648648e-05
5.040206412378373e-05
5.613155839490431e-05
6.403411271704816e-05
7.424850373678588e-05
8.681536192189809e-05
0.0001015597389271513
0.0001179128392749653
0.0001346498891878789
0.0001495249275545586
5.105329628415297e-05
5.305975788373483e-05
5.73456720972973e-05
6.429777808875576e-05
7.441786666538452e-05
8.829546908878703e-05
0.0001065642525772829
0.0001298118094713585
0.0001584019931072606
0.0001921508832934771
0.0002298022697266806
5.062862442372832e-05
5.263298345412579e-05
5.689736574600269e-05
6.378736634057411e-05
7.377734383240974e-05
8.741984033251927e-05
0.0001052986367902629
0.0001279369569388613
0.0001556249639649176
0.0001881171700584716
0.0002241473505840899
4.972821646645054e-05
5.172224336448512e-05
5.593278034365661e-05
6.268447580152569e-05
7.239839280918104e-05
8.55551563801545e-05
0.0001026407175006874
0.0001240473921907028
0.0001498970385826203
0.0001797399421256756
0.0002120676961433226
4.826196960583007e-05
5.022694810696821e-05
5.43331835832728e-05
6.084738051154827e-05
7.011507505259867e-05
8.251578969192655e-05
9.839938769189887e-05
0.0001179772347333426
0.000141137027497094
0.0001671375536434829
0.0001941265823526194
0.0002019658579405984
0.0001945847561855915
0.0001798252826054202
0.0001588402390032339
0.0002684450236672312
0.0002607873940669705
0.000243589472963093
0.0002184661753298356
0.0002126850889740735
0.0002027385631245094
0.0001834259093884771
0.0001569217226658357
0.000303190211470716
0.0002921064112113507
0.000267606017495444
0.000233555081406982
0.0002062801019717851
0.000167715090620321
0.0001926203966947003
0.0001511229893591861
0.00016821110777085
0.0001228232586267884
0.0001367539783014149
8.921381306403837e-05
0.0003213713827978491
0.0003289988824383314
0.0003082585580778885
0.000288723995809206
0.0002731706508148471
0.0002406737030305395
0.0002304066586195963
0.0001983782176545426
7.906513787640299e-05
-6.27961061899966e-05
6.526305070980455e-05
-7.520770998711806e-05
3.824340834952464e-05
-9.898446989667081e-05
3.959616051987773e-06
-0.0001284002747688323
0.0002327726591510082
0.0001791572531342268
0.0001650623817559787
0.0002157267173628679
0.0001730848930456596
3.2250187031133e-05
0.0001179918981376045
-3.176137131287487e-05
-0.0002696172407243754
-0.0004386007977126363
-0.0008460623257126921
-0.0009459594311616272
-0.0002781712360243346
-0.0004356481857848591
-0.0008321166912888402
-3.266562477550495e-05
-0.0004219050988198982
-0.0008131611464927809
-0.001305833936919029
-6.757683299191514e-05
-0.000433701355030855
-0.0008053790707206383
-0.0002977530881261957
-0.0004283603355040876
-0.0008227046611925503
-0.0003070211629868769
-0.0005176959254712907
-0.0007675658864558135
-0.0004546232634620758
-0.0007993159100920619
-0.0001018689747816314
-0.0001534300185016262
-0.0006349740974818867
-0.000830285978632808
-0.0009151988443716732
-0.0008667725056760909
-0.001243604793425338
-0.00117716700595766
-0.0009289610678811055
-0.001288693203593907
5.208421350767808e-05
5.400056409358104e-05
5.825612304329966e-05
6.54099568465825e-05
7.618332137695705e-05
9.146593498014441e-05
0.0001123162432386736
0.0001399243101879681
0.000175482588380309
0.0002198544974778428
0.0002728453185351409
5.185538606924336e-05
5.379103875576348e-05
5.806395251147597e-05
6.520918770023574e-05
7.591740800697677e-05
9.103595168806954e-05
0.0001115633238508066
0.0001386090812770917
0.0001732777958206688
0.0002164101913779791
0.0002680995723345421
5.132398623805586e-05
5.328856415776561e-05
5.757844216594171e-05
6.468171594139452e-05
7.522881832211606e-05
8.998343675184726e-05
0.0001098239203522216
0.0001356875219225987
0.0001684397745717806
0.0002086115316833513
0.0002559260110422399
5.035844429042032e-05
5.234481053738161e-05
5.662089116947063e-05
6.360728787418142e-05
7.384744317009617e-05
8.79853094464513e-05
0.0001067294331139246
0.0001307748206669012
0.0001606434586475583
0.0001963785920439205
0.0002369850513812916
0.0003319436147252556
0.0003270231800719738
0.0003085013659393885
0.0002794842031920559
0.0003927572886613397
0.0003892018834026584
0.0003603378392531779
0.0003168499746788532
0.0004787103358625142
0.0005635900266669789
0.0004482806728753
0.0004804367161988211
0.0004009090065729335
0.0004181371031970215
0.000337177629129171
0.0003472024124111533
0.0005591162061798535
0.0004352535056058866
0.0005196849911718595
0.0004171306555371445
0.0004544584854368242
0.0003563024890862025
0.0001161649171795534
-0.0003347100405219052
-0.0008302645024489447
2.672586326908919e-05
-0.0003476901403543817
-0.0008271323114241133
9.183445161695541e-05
-0.000370640123186675
-0.0008253622282506431
-0.0006992203626124035
-0.0008176482428403822
-0.001309675751687681
-0.00123333144517037
-0.001381493382682366
-0.00136167687782494
-0.0008091079404725736
-0.001192139029197962
-0.001184391347721707
-0.001009061820197602
-0.0008253689744209515
-0.001008590095370524
-0.0008307181161694786
-0.001294507540541145
-0.0009930941504178066
-0.001084345625760721
-0.001178889238342144
-0.0008067426604381837
-0.001150664128330916
-0.001007389436339495
-0.0009871653717188453
-0.0008004697399722614
-0.0008207546644833702
-0.001257430208157601
-0.001155351917792322
-0.001151308825227247
5.604583342862554e-05
-0.0002323195715217315
-0.0002119144949054629
0.0002878595527432046
0.0001822312022105221
8.790968683831215e-05
7.578020873451623e-05
-0.0003450676046265244
-0.00069385869092373
-0.0006940413784203268
-0.0001733298056009942
-0.0004881222660921775
-0.0003308884769121726
-0.0004933524356729918
-0.0008284414612188097
-0.001250501223126983
-0.001241574423181911
-0.001244754676045761
-0.001241957222768577
-0.0008507340036657926
-0.001045125618427159
-7.132456639690694e-06
-0.0002130514161239836
-0.0001930512944083196
0.0001192268948232164
1.847811323312404e-05
0.0002525180919838973
5.172447363191889e-05
-0.000693411524054926
-0.0004079386307069142
-0.0007084482538037239
-0.0003687431559434447
-0.000523677537674955
-0.0001982931409689866
-0.000505343480058772
-0.001235434242590865
-0.0008283802595010586
-0.001205203048161696
-0.001235219997831292
-0.00122398894621599
-0.001041416209200247
-0.000856485452740805
-0.0007129045752938696
-0.0007463219418790546
-0.0002878856627978069
-0.0002597907549818597
-0.0005449288418942972
-0.000426468500051541
-0.0005656399900043459
-0.001192168529391242
-0.0008296994283998148
-0.001142289677861658
-0.001207722785590263
-0.001186674748809878
-0.0008666848266287917
-0.001027498535997087
-0.0004427525376904482
-0.0003294123596035409
-0.0005869080151980493
-0.001128951700848324
-0.001160594576837325
-0.0008687262079736915
-0.001251078417048609
-0.001544509980779778
-0.001641639524103063
-0.001442829186471334
-0.001369304904707218
-0.001639359014187601
-0.001814516673131284
-0.001325433841136774
-0.001612513466187256
-0.001565063929978066
4.683415753658184e-05
4.747857531931078e-05
4.964897499607801e-05
5.430967210635584e-05
6.262595495929783e-05
7.609797825640222e-05
9.675174277415049e-05
0.000127423956667128
0.0001722028927226316
0.0002369924608201303
0.0003287944410284336
4.977096942163261e-05
5.099371215718914e-05
5.41762806717069e-05
6.018148384494142e-05
7.008652911505328e-05
8.527778148341179e-05
0.0001075818324815327
0.0001394365651490647
0.0001840950384343099
0.00024579860725373
0.0003298897363112379
5.161397250256007e-05
5.326896078646031e-05
5.715979730301551e-05
6.400976609673092e-05
7.47409097851626e-05
9.052307762391725e-05
0.0001128350188904218
0.0001435146267548025
0.000184740240116925
0.0002387615409955233
0.0003067833757082264
4.737581682447153e-05
4.814537642554456e-05
5.053683467761502e-05
5.549506213443523e-05
6.416833362942187e-05
7.80310223871893e-05
9.905509045389812e-05
0.0001299587454881959
0.0001745898547956062
0.0002384449895694791
0.0003282266450387222
5.003547964623835e-05
5.134207447926364e-05
5.466479747385703e-05
6.084270817431139e-05
7.092647546062529e-05
8.626338413956332e-05
0.0001086136618426624
0.0001403001076230697
0.0001843918709999181
0.0002449034769623948
0.0003270604628150761
5.161747780210966e-05
5.332054524675442e-05
5.728275247704945e-05
6.420226556765117e-05
7.497039603401961e-05
9.071320908581118e-05
0.0001128433017921483
0.0001431028816998295
0.0001835648813879021
0.0002365261785926198
0.0003042164253084395
4.829959440415239e-05
4.929345567911293e-05
5.207612180675054e-05
5.755106466973341e-05
6.682753801000452e-05
8.132315034021928e-05
0.0001029010043260976
0.0001340485507068244
0.0001781006452402809
0.0002392602092132787
0.0003185500936331733
5.043551899978938e-05
5.189009669708389e-05
5.545514140949849e-05
6.192144699173823e-05
7.228451304105123e-05
8.781135488400679e-05
0.0001101282351729972
0.0001413203103516561
0.0001840213748656922