/*--------------------------------*- C++ -*----------------------------------*\
  =========                 |
  \\      /  F ield         | OpenFOAM: The Open Source CFD Toolbox
   \\    /   O peration     | Website:  https://openfoam.org
    \\  /    A nd           | Version:  7
     \\/     M anipulation  |
\*---------------------------------------------------------------------------*/
FoamFile
{
    version     2.0;
    format      ascii;
    class       volScalarField;
    location    "0";
    object      Phi;
}
// * * * * * * * * * * * * * * * * * * * * * * * * * * * * * * * * * * * * * //

dimensions      [0 2 -1 0 0 0 0];

internalField   nonuniform List<scalar> 
12678
(
57.34031093255969
56.00698516128459
54.67366684409384
53.34035573569827
52.0070513918768
50.67375306968033
49.34045958060798
48.00716908534299
46.67387881734641
45.34058472452948
44.00728102704711
57.34018803460608
56.00685895877771
54.67353395862579
53.3402126446144
52.00689436603064
50.67357812665772
49.34026246517143
48.00694529558839
46.67362370463762
45.34029370780134
44.00694997633623
57.34007244875378
56.00674050461294
54.67340972433164
53.34007963619277
52.00674947925706
50.67341813750086
49.34008404971568
48.00674509496675
46.67339845610066
45.34004046914806
44.00666647573024
57.33996599170941
56.00663160751618
54.67329592665939
53.33995844166348
52.006618351592
50.67327451446818
49.33992538470569
48.00656893787248
46.67320258792115
45.33982310665056
44.00642656209428
57.33987015720795
56.00653373898893
54.67319398580115
53.33985038649445
52.00650214724781
50.67314816027029
49.33978696467085
48.00641670292521
46.6730350787928
45.33963932603001
44.0062262018666
57.33978614578798
56.00644806910874
54.67310500498131
53.33975645844363
52.0064016707337
50.67303960145912
49.33966890814001
48.00628792676118
46.67289465883085
45.33948677282481
44.00606163065132
57.33971489971645
56.0063755064784
54.67302982063148
53.33967737343305
52.00631745408016
50.67294910238308
49.33957110239842
48.00618198037944
46.67278001171661
45.339363243009
44.00592953683421
57.3396571388561
56.00631673804145
54.67296905010289
53.33961363503003
52.00624983163277
50.67287675796671
49.33949331506408
48.00609819686153
46.67268991007759
45.33926680859462
44.005827147454
57.33961339426635
56.0062722656239
54.67292313399206
53.33956558513832
52.00619900113028
50.67282256612092
49.3394352768885
48.00603596055327
46.67262330242483
45.3391958872902
44.00575225747598
57.33958403722688
56.00624243703581
54.67289237126149
53.33953344475783
52.0061650711197
50.67278648180253
49.33939674081373
48.0059947670393
46.67257936658848
45.33914927762951
44.00570322992185
57.33956930211163
56.0062274703243
54.67287694611802
53.33951734443679
52.00614809540657
50.67276845504603
49.33937752191356
48.00597426156209
46.67255754089071
45.33912617444915
44.00567898435594
57.3402972930845
56.0069711836163
54.67365218142763
53.34034002421686
52.00703424290235
50.67373406300705
49.34043826014243
48.0071449589696
46.67385136410468
45.34055341377917
44.00724535613021
57.34017562384202
56.00684627510415
54.67352072433769
53.34019857278525
52.00687915692745
50.67356146568261
49.34024402336638
48.00692473424745
46.6736006862452
45.34026791629771
44.00692115041081
57.34006116605145
56.00672900422942
54.67339778645995
53.34006703718015
52.00673599076601
50.67340352716832
49.34006808414282
48.00672754615955
46.67337911280917
45.3400191548487
44.00664307510191
57.33995572412543
56.00662116805993
54.67328514311311
53.3399471414923
52.00660636276224
50.67326166755258
49.33991151688875
48.00655389960187
46.67318625306978
45.33980538708933
44.00640742741829
57.3398607837091
56.00652423088392
54.6731842092616
53.33984020955859
52.00649144155353
50.67313680380344
49.33977484594784
48.00640372707017
46.67302117597186
45.33962446262532
44.00621039453795
57.33977754055253
56.00643935896309
54.67309608645441
53.33974723118356
52.00639203967786
50.67302947975397
49.33965822107825
48.0062766169933
46.6728826930602
45.33947415007677
44.00604839198402
57.33970693455927
56.00636745949689
54.67302161179492
53.33966892647403
52.00630869881631
50.6729399775619
49.33956155922157
48.00617198683103
46.6727695577525
45.33935234655031
44.00591825032585
57.3396496848608
56.00630921956944
54.67296140463571
53.33960580408848
52.00624176309886
50.67286840875125
49.33948465420146
48.00608920907164
46.67268059976958
45.33925720418875
44.00581730576118
57.33960632274167
56.00626514196644
54.67291590808634
53.3395582109865
52.00619143911172
50.67281478547054
49.33942725842641
48.00602769965675
46.67261481217453
45.3391872016426
44.00574343421519
57.33957722012037
56.00623557570455
54.67288542350861
53.33952637249914
52.00615784257494
50.67277907382454
49.33938914135948
48.00598697774721
46.67257140537402
45.33914118114595
44.00569505565799
57.339562612019
56.00622073986395
54.6728701369471
53.33951042230633
52.00614103231118
50.67276123147226
49.339370129178
48.00596670419209
46.6725498389522
45.33911836566817
44.00567112581883
57.34027046628058
56.00694370068235
54.67362337028848
53.34030918139787
52.007000619309
50.67369685223333
49.34039659155316
48.00709789928761
46.67379793341655
45.3404926248327
44.00717628931165
57.34015120303174
56.00682132440542
54.67349470510418
53.34017092961689
52.0068493113912
50.67352881311411
49.34020793477361
48.00688456628721
46.67355580348396
45.34021773140186
44.00686518919977
57.34003895530869
56.00670637050892
54.67337430305111
53.34004227071674
52.00670950005535
50.67337486497872
49.34003680355985
48.006693213648
46.67334133071287
45.33997759658047
44.00659753642415
57.33993550315795
56.00660061288252
54.67326391912832
53.33992491406418
52.00658279911556
50.673236441188
49.33988431569099
48.00652443905854
46.6731542962203
45.33977077286131
44.00637010867233
57.33984231607285
56.00650550132185
54.67316495756454
53.33982017955893
52.00647038470536
50.67311448473464
49.33975105078659
48.00637827541388
46.67299393735869
45.33959537819408
44.00617950409251
57.3397605801233
56.00642219426066
54.67307851615401
53.33972906032616
52.00637308403728
50.67300957165462
49.33963721717209
48.00625440847914
46.67285921872475
45.339449412301
44.00602247541804
57.33969123030673
56.00635159582733
54.6730054328928
53.33965228406796
52.00629145680174
50.67292201763122
49.33954278779918
48.00615234354105
46.6727490255162
45.33933096318216
44.00589612114275
57.33963498408174
56.00629439310399
54.67294633069513
53.33959036891648
52.00622586556947
50.67285196563024
49.3394676062232
48.00607152790147
46.67266229579203
45.33923833486993
44.00579798406903
57.33959237297719
56.00625109053096
54.67290165730611
53.33954367134182
52.00617653369839
50.67279945487861
49.33941146609491
48.00601143768125
46.67259810742857
45.33917012191898
44.00572609390078
57.33956377001397
56.00622203931915
54.67287171857381
53.3395124248709
52.00614359055551
50.67276447274285
49.33937416841653
48.00597163705283
46.67255573299934
45.33912524988899
44.00567897907666
57.33954941138425
56.00620746045937
54.67285670400148
53.33949676912989
52.00612710453053
50.67274699145037
49.33935556059812
48.00595181671095
46.67253467273246
45.33910299548914
44.00565566434413
57.34023132946707
56.00690362804344
54.67358140502792
53.34026432565738
52.00695181619284
50.67364297195906
49.34033642504198
48.00703016450879
46.67372130265657
45.34040578483093
44.0070780505902
57.34011555075953
56.00678491539658
54.67345677140459
53.34013068202182
52.00680593205019
50.67348145278422
49.34015571762339
48.00682660640834
46.67349123887283
45.34014578295939
44.00678525381915
57.34000650656384
56.00667331695618
54.67334003547479
53.34000617229155
52.00667094573409
50.67333322521144
49.33999145462053
48.006643557529
46.67328682828964
45.33991781834814
44.00653223514946
57.33990594094996
56.00657057222453
54.67323292168283
53.33989248279156
52.00654846170964
50.67319973713719
49.339844808614
48.00648173626188
46.67310807765048
45.33972083159816
44.00631640455108
57.33981529928668
56.00647810914383
54.67313681754196
53.33979092599292
52.00643966426704
50.67308196489651
49.3397164321843
48.00634130932112
46.67295444940934
45.33955329919892
44.00613490809145
57.33973575290641
56.00639707397138
54.67305281429613
53.33970249822499
52.00634539943869
50.67298052737937
49.33960661252946
48.00622209408789
46.67282511522484
45.33941353308143
44.00598495284856
57.33966822904194
56.00632836562399
54.67298175023833
53.33962793678595
52.00626625092432
50.67289578569082
49.33951539894555
48.00612371578239
46.67271914018366
45.33929988138647
44.00586400148217
57.33961344215695
56.00627267052356
54.67292425259735
53.33956777236143
52.0062026063182
50.67282792585171
49.33944270333237
48.00604572460971
46.67263561126091
45.33921085658194
44.00576987965339
57.33957192366693
56.00623049497414
54.67288077515651
53.33952237427716
52.00615471196832
50.67277702443026
49.33938837634909
48.0059876799133
46.67257372353884
45.33914521315736
44.00570082883659
57.33954404783565
56.00620219296332
54.67285162975837
53.33949198725551
52.00612271606632
50.6727430982524
49.33935226277579
48.00594920836097
46.67253283584804
45.33910199213904
44.00565552752045
57.33953005231341
56.00618798798246
54.67283701058352
53.33947675909369
52.00610670025045
50.67272613979378
49.33933423957716
48.00593004219979
46.67251250497003
45.33908054492792
44.00563309623721
42.67395971119142
42.67358556697131
42.67327070995821
42.67300830192417
42.67279202465391
42.67261635247612
42.67247664777048
42.67236916156808
42.67229099048845
42.67224002046636
42.67221487460952
42.67391926944649
42.67355355026424
42.67324520533953
42.67298780456102
42.6727753569596
42.67260259163005
42.67246506480342
42.67235917179235
42.67228211359581
42.6722318481773
42.672207043767
42.67384119890806
42.67349154894541
42.67319567440116
42.67294789614284
42.67274283072621
42.67257568352452
42.67244237525905
42.67233957382317
42.67226467817576
42.67221578329689
42.67219164343575
42.67373067460696
42.67340333604321
42.67312488284151
42.67289062257758
42.67269597908379
42.67253679716321
42.67240949133078
42.67231110160431
42.67223929890055
42.67219236735809
42.67216918039779
41.35727689387167
41.35685914024939
41.35651407669653
41.35623108514923
41.35600102091864
41.35581629023102
41.35567076698804
41.35555964811659
41.3554793001009
41.35542712293542
41.3554014435453
41.35723152244839
41.35682399099519
41.35648661953104
41.35620940497559
41.35598367001381
41.35580216874049
41.35565903009644
41.35554963513971
41.35547048034488
41.35541905373233
41.35539373663486
41.35714422600534
41.35675610558425
41.35643341247631
41.35616726818442
41.3559498590914
41.35577458741115
41.35563606035554
41.35553000611304
41.35545316726816
41.35540319905282
41.35537858639643
41.35702125945698
41.35665992466701
41.35635762903577
41.35610696759862
41.35590126927324
41.35573480259738
41.35560282024144
41.35550152276852
41.35542798996745
41.35538010740282
41.3553565032575
40.05722095574624
38.75710931391831
40.05676218474558
38.75661602607641
40.05639057412108
38.75622451864987
40.05609083324001
38.75591405912104
40.0558505388224
38.75566867037123
40.05565982602101
38.75547617098572
40.05551101059477
38.75532737235056
40.05539823142366
38.75521544213658
40.05531714823203
38.75513542041723
40.05526470453395
38.7550838661527
40.05523895527978
38.75505861230971
40.05717081063055
38.75705495871487
40.05672420927942
38.7565758357411
40.05636149668383
38.75619436473497
40.05606827716051
38.75589107786458
40.0558327694045
38.75565084447518
40.0556455652011
38.75546205828701
40.05549930311006
38.75531592312193
40.05538834827524
38.75520587397394
40.05530851641505
38.7551271310402
40.05525685476453
38.75507637094272
40.05523148155159
38.75505149752799
40.05707470071545
38.75695126229338
40.05665107797646
38.75649868181844
40.05630527764615
38.7561362022026
40.05602451720568
38.75584657524735
40.0557981930253
38.75561620856016
40.05561774391056
38.75543455744535
40.0554764119026
38.75529355691997
40.05536898770779
38.75518714348724
40.05529158184174
38.75511087706817
40.05524143827158
38.75506165710853
40.05521679556126
38.75503752207464
40.05694004375015
38.75680682931851
40.05654791786726
38.75639034944113
40.0562254882517
38.75605395612683
40.05596207345042
38.75578325617901
40.05574861815747
38.75556666298972
40.0555776874624
38.75539503480686
40.05544333435287
38.75526128450785
40.05534092661841
38.75516002609139
40.05526697754183
38.75508728223003
40.05521900145732
38.75504025785316
40.05519540300478
38.7550171768435
37.45692383142485
36.15664635863737
37.45640872887316
36.15612920821182
37.45600813926923
36.15573482206359
37.45569579296709
36.15543224269998
37.45545232118786
36.15519946939433
37.4552634795274
36.15502083575552
37.45511883231237
36.15488516235147
37.45501079909435
36.15478449768836
37.45493397673238
36.1547132670993
37.45488466815051
36.15466770354237
37.45486056748884
36.15464547803924
37.45686663643711
36.15658845883087
37.4563673887463
36.15608824846426
37.45597773008843
36.15570525853939
37.45567301047535
36.15541044887643
37.45543490950465
36.15518304025759
37.45524987074905
36.15500814382134
37.45510791343059
36.15487507914349
37.45500175880805
36.15477621740418
37.4549262026654
36.15470619238106
37.45487767570133
36.15466136883379
37.45485394810707
36.15463949535954
37.45675790509764
36.15647871987176
37.45628826372095
36.15601008503433
37.45591921391399
36.15564850664308
37.45562897404121
36.1553684006488
37.45540112671578
36.15515120772211
37.45522338116937
36.15498346443769
37.45508660141589
36.15485541352148
37.45498407319837
36.15476002798868
37.45491096669249
36.15469233301488
37.45486395417429
36.1546489421204
37.4548409500863
36.15462775084852
37.45660740182112
36.15632782987809
37.45617769609807
36.15590142676165
37.4558367755647
36.15556886152575
37.4555664995327
36.15530891742043
37.45535291047295
36.15510587265411
37.45518537871548
36.15494811659691
37.45505589194755
36.15482711136276
37.45495849531417
36.15473663568986
37.45488886733682
36.15467224435002
37.45484401065909
36.15463089018024
37.4548220380038
36.15461067030164
34.85626258727174
33.55575936784719
32.25514783318695
34.85576928308207
33.55532529222445
32.25480352766652
34.85540043008041
33.55500467554521
32.25455283488931
34.85512164662637
33.55476512413006
32.25436738647552
34.85490971049871
33.5545847582617
32.25422878312133
34.85474860043892
33.55444870331109
32.25412480791801
34.85462714789443
33.55434675789289
32.25404721997707
34.8545375534619
33.55427190049366
32.2539904187524
34.85447442732348
33.55421933616971
32.25395061738006
34.85443416698364
33.55418588930562
32.25392532671864
34.85441456229137
33.55416962428992
32.2539130376555
34.85620666044191
33.55570924507488
32.25510774363936
34.85573064521625
33.55529134573573
32.25477676508606
34.85537305482801
33.55498100519482
32.25453439251261
34.85510176351134
33.55474814355328
32.25435426932643
34.85489490203161
33.55457223261777
34.85473727379584
32.25421916366579
33.55443919399406
32.25411753141407
34.85461822257506
33.55433930734982
32.25404152949223
34.85453027212925
33.55426584812153
32.25398579862984
34.85446823746447
33.55421420648644
32.25394670034557
34.85442864375689
33.55418132080105
32.25392183593453
34.85440935524637
33.5541653212891
32.25390974815913
34.85610105675299
33.55561439422206
32.25503185788131
34.85565716018996
33.5552269692467
32.25472609297797
34.85532063753257
33.5549357929378
32.25449922114674
34.8550634713317
33.55471549543572
32.25432907724343
34.85486624653876
33.55454802111056
32.25420058256213
34.8547152694815
33.55442073368705
32.2541034111925
34.8546008267523
33.55432479297735
32.25403044599666
34.85451604260012
33.55425402403331
32.25397677314132
34.85445611564482
33.55420416285953
32.25393903080793
34.85441781159768
33.55417236216977
32.25391499014976
34.85439913542592
33.55415687657717
32.25390329184372
34.85595720341221
33.55549017485391
32.25493161334383
34.85555568333238
33.55513910914073
32.25465707178023
34.85524738650701
33.55487291868802
32.25445043056862
34.85500945437102
33.554669562729
32.25429369459724
34.85482551694346
33.5545136656131
32.2541742437331
34.85468379816751
33.55439436059557
32.25408325017875
34.85457581727862
33.55430394173276
32.25401452787791
34.85449549764955
33.55423696055158
32.25396374927892
34.85443855499705
33.55418961742251
32.25392792295046
34.85440208227221
33.55415935595575
32.25390505008006
34.85438427711177
33.55414460075918
32.25389390495766
57.34043898349496
56.00711694001835
54.67380618964921
53.34050670882064
52.00721838277544
50.67394089804692
49.34067357767672
48.00741513900207
46.67416334743339
45.34091453454104
44.0076629493994
57.34042403199995
56.00710157477518
54.6737899830788
53.34048920554078
52.00719908548519
50.67391925359101
49.34064896422598
48.00738685635327
46.67413061421097
45.34087649885172
44.0076187233289
57.3403946374749
56.00707137817396
54.6737581565507
53.34045486955215
52.00716128292161
50.67387692465726
49.34060092411588
48.00733177970485
46.67406703371433
45.34080283060683
44.00753333903992
57.34035178520255
56.00702738339842
54.67371184245646
53.34040499081808
52.00710649217871
50.67381574105695
49.34053170714557
48.0072527141754
46.67397613625852
45.34069799463167
44.0074124442222
57.34056804896869
56.0072500643676
54.67394758400814
53.34066089243748
52.00739034500827
50.67413626650746
49.34089878753004
48.00767758915192
46.67447151269777
45.34127797406602
44.00809210353476
57.34055174235259
56.00723325964951
54.67392976250387
53.34064149353349
52.00736874338921
50.67411174756998
49.34087052118169
48.00764460338255
46.67443267059038
45.34123196205966
44.0080374458129
57.34051969723061
56.0072002496857
54.67389478437236
53.34060346568761
52.00732646404815
50.6740638499786
49.34081542689049
48.00758047663827
46.67435738135439
45.34114307326266
44.00793225460662
57.3404730130568
56.00715219291788
54.67384393086229
53.34054828690192
52.00726527205875
50.67399474028214
49.34073622085295
48.00748866866656
46.67425010173576
45.34101708747662
44.00778403550536
42.67439992872699
42.67434866089545
42.67425003582026
42.6741111593983
42.67490552214787
42.67484064686909
42.67471633181505
42.67454226340074
41.35777901287356
41.35772010801625
41.35760725855794
41.35744927880505
41.358369713168
41.35829325114051
41.35814746985542
41.35794463406964
40.05778507012916
38.75773094887347
40.05771826549604
38.75765631316965
40.05759097127481
38.7575153686618
40.05741389505599
38.75732078285947
38.75850473379215
40.05846614432384
40.05837700360069
38.75840043609156
40.05820823248852
38.7582080165184
40.05797490984359
38.75794437616667
37.45758902071492
36.15732930429949
37.45750844989742
36.15724599767036
37.45735677315243
36.1570893094578
37.45714919202226
36.15687649627578
37.45844242357022
36.48358355593005
36.4834818133617
37.45832673261553
37.45811271050783
35.83311326045182
37.45782425905802
36.15757629529293
34.85693367990112
33.88126939900386
31.93029956260552
31.27988824457723
34.85685060767147
33.88119904349045
31.93023674589351
35.18325480745296
33.88268230807755
32.74458694053513
31.44345969654476
35.18314925781652
33.88257760040967
32.74450306348137
34.85669527132931
33.88106870895086
31.93019037138629
34.85648375156543
33.55595960702719
31.93007009860783
33.88235219748404
32.74430376308975
35.18291888908807
35.18259686717705
33.23168477525449
32.58127347164083
31.27979945460477
31.27970338158485
31.4432487680183
31.28030442485721
31.27983733582656
31.44339824388164
57.34069534065547
56.00738165713627
54.67408797267595
53.34081496855057
52.00756361797588
50.67433511058771
49.34113071937782
48.00795157369308
46.67479828005017
45.34167029921255
44.00856493849615
57.34067766612363
56.00736339298948
54.6740685004028
53.34079361012156
52.00753960176382
50.67430753214766
49.3410984956806
48.00791339027059
46.67475253267106
45.34161503639088
44.00849782052182
57.34064294682863
56.00732753245676
54.6740303032706
53.34075176979581
52.00749263738557
50.67425371691689
49.34103577453491
48.00783928684562
46.6746640501007
45.34150856707068
44.00836910383308
57.34059240007915
56.00727536417445
54.67397481917332
53.34069112664014
52.00742476001581
50.67417620584754
49.34094580269448
48.00773348713092
46.67453840167939
45.34135830059938
44.00818866754424
42.67547574263936
42.67539405625708
42.67523827739745
42.67502143938675
41.35905346661373
41.35895457838573
41.35876720848683
41.3585079506807
40.05927543507442
39.08467257104208
40.059158291269
38.75931036886359
40.05893586411652
38.75905010221749
40.05862896234081
38.75869126511659
37.78484414588382
36.48484891524934
37.78471737861523
36.48469661500678
37.78442979502199
36.48436782540088
35.34616978862149
34.04573379427371
32.74486510979796
35.18374427404134
34.0456308430517
32.74477034628938
35.34649993366465
34.04536298697762
32.74454445755943
33.06944823478239
32.74422978978654
31.44342829287005
31.44319596202515
31.44367002401962
31.4435989794026
32.74453611475683
31.76876781951297
31.76872552618723
31.93088776218077
32.58138338472906
31.93090901219724
32.58135900301794
31.44342184357617
31.44251903995859
31.44289795283892
31.76869940366487
32.74436437979026
31.76858363155922
31.93084568888177
31.93078619209897
32.5812433748802
32.58131136459491
31.44329338928733
31.28032972266035
31.28028202762163
35.18383009447548
34.37089668534636
34.37082759420507
35.34736096225093
35.02222464583941
34.69715259124709
34.69710813817468
34.04566812011342
33.07011189579483
33.07005218515642
34.04684615787296
33.3964290228275
33.72160633914584
33.39638388198161
32.74480773437471
31.76899860783788
31.7689510382983
32.09523684641738
32.09519773849283
32.74589381170733
32.42053930325154
35.18361699529265
34.37078863739411
34.37061076838874
35.02196828367025
34.69684795216152
35.34721988570022
34.69700548342452
33.07001334942525
34.04544502652455
33.06985338475765
33.72134560168044
33.39612663966485
34.04669594465647
33.39628107065113
31.76892039100055
32.74461244069267
31.76878817737952
32.09510890198956
32.09497576004087
32.42030496113912
32.74575315228158
33.06977994201879
33.06953733972237
34.04470409576373
34.04633573673851
33.39592860958364
33.72090799147418
33.39569571836769
31.76873243347226
32.74431660585876
31.76854055814563
32.09480580819693
32.09460793508142
32.74541906395815
32.4199157430328
33.88249237428607
34.04583272388726
33.39543887731435
31.76847061837686
32.09439134109929
32.74495940506639
31.44325561405852
31.44409265647408
31.11855085447936
31.44374051492729
31.44362679318497
31.44446093632514
31.11900147389878
31.44347891909835
31.44435140338964
31.44416855979343
57.3410467923084
56.00774657440518
54.67448062209346
53.34125128847356
52.00806223676445
50.67491860454968
49.34182722738309
48.00879692070871
46.67583880885984
45.34296665698146
44.01019701770347
57.3409378147478
56.00763316745588
54.67435806225388
53.34111423375214
52.00790433764183
50.67473200691737
49.34160190863226
48.00851977489618
46.6754923558307
45.34252718819683
44.00963195977752
57.34081961581968
56.00751042389574
54.67422595833196
53.34096738799052
52.00773645868692
50.67453546910217
49.34136720867814
48.00823482059567
46.6751415255161
45.34209009474305
44.00908188635112
57.34102518031371
56.00772407396939
54.67445628245526
53.3412240271823
52.0080307550673
50.67488127681069
49.34178194939342
48.00874089484638
46.67576823508715
45.34287629444344
44.01007961767939
57.34091744868838
56.00761201315279
54.67433528134212
53.34108888274172
52.00787530254033
50.6746979207074
49.34156104280124
48.00846989349925
46.67543051788267
45.34244948374684
44.00953316758635
57.3408005757773
56.00749069652657
54.67420481748736
53.34094402678643
52.00770994117315
50.67450467175159
49.34133074740562
48.00819095871116
46.67508805861112
45.34202421059949
44.00899999627214
57.3409827713336
56.00767994886559
54.6744086082348
53.34117072451652
52.00796934175397
50.6748086655741
49.34169417424353
48.00863272836803
46.6756326393313
45.34270361126342
44.00985628774839
57.34087747175619
56.00757051268672
54.67429063981792
53.34103928596732
52.00781861863386
50.6746315490618
49.34148171822294
48.00837342651198
46.67531144783402
45.34230062106072
44.00934502610939
57.34076318842563
56.00745197978245
54.67416336918121
53.34089829374172
52.00765812973543
50.67444464069599
49.34125987624225
48.00810598446819
46.67498487666366
45.3418976448804
44.0088435763506
56.00761588302552
54.67433952425052
53.34109370384384
52.00788092872994
50.67470460602952
49.34156907072713
48.00847957402102
46.67544218069261
45.34246348511093
44.0095499756778
57.34081934048927
56.00751022166879
54.67422590263665
53.34096755219943
52.00773691417041
50.67453628059765
49.34136842575704
48.00823646489567
46.67514357745952
45.34209249515223
44.00908459512868
57.34070879125524
56.007395695978
54.67410321411388
53.34083208020488
52.00758334994669
50.67435832773307
49.34115843775076
48.00798500270862
46.67483887344215
45.3417198216077
44.00862556365998
42.67754821391568
42.67681306497852
42.67611517172151
42.67739409418017
42.6766861764627
42.67601265496028
42.67709977842932
42.67644649963192
42.67581854762424
42.67670677688998
42.67611838666733
42.6755502258506
41.03715568109272
41.3607325153834
41.35984418293991
41.03703939959281
41.36056787189874
41.35971491774894
41.68625908572513
41.36026430723118
41.3594751200269
41.36059745430599
41.3598489032652
41.3591452941923
40.38766295059271
40.38646311460196
38.27549255202958
40.38475474850657
39.08524138856906
40.06008451580049
39.08510802938029
40.05979277426111
39.0847411242223
40.05938971382613
40.38752722979144
40.38636207874828
38.2752831704911
40.38707953321876
40.38600777315227
38.43620135640016
39.73681641237651
37.94892517038266
35.67433262805809
37.78536076140316
35.67373676111724
37.78501906941523
35.67358042386967
35.67773112885322
37.95070181107371
35.67694098973467
37.95047610079124
35.67424175153499
37.94869077427213
35.6740671622717
37.78573113708919
35.67324953323335
35.35204524956198
34.05180428208214
31.7745598914972
35.34931562491962
34.04878546102978
31.77161135979055
31.77194158825086
35.34869883457699
33.07256060649793
31.77138858024459
35.35288171926876
34.05277113515609
31.77559862572896
33.07612056330378
31.77505445660755
35.34922085340204
33.07524750948981
35.34853744783364
33.07238667369069
31.77087526021416
35.34668880239447
34.04727820209393
32.09465261242126
33.07575878476569
31.77386266365831
35.34903995744592
33.07493666772125
31.77133954860235
35.34819606678497
34.04771804829893
31.7705639161099
31.44539192619693
31.44396193558978
31.44817461746177
31.44582114961458
31.44510440815979
31.44883271233036
31.4460735842055
31.44638004135055
31.44586692561057
31.4498156360641
31.44929944495255
38.27596133469573
38.27582341292747
39.25006607452542
39.25023974444753
38.27536603429647
38.27421106383157
38.27412030882005
39.08719992595833
39.08647545894846
39.08653492165743
39.2498575276952
38.27573233917781
38.27533809091784
39.24999794195887
39.24967857514995
38.27517226288987
38.27459620927294
39.24955077614761
39.08695323499324
37.94881933301309
37.78551121639289
37.78546144132994
36.97407836321878
36.97418574151258
37.29780487760139
37.13553771298561
35.67419841959654
35.9978986613548
35.99785141780198
36.64913399081419
36.64924939116657
36.64793146326149
36.32288047893724
35.99758014262736
35.6741109083892
35.99774307178023
36.64905689020177
36.6487234628645
36.6477339603325
36.64758734451597
35.99736935378686
35.99711223512247
35.67304123492568
36.64858406111071
36.64809955436196
36.64738108432873
36.48477911245828
37.95120396477438
37.95105448552876
36.97673237443001
36.97691820642205
35.6774886786813
36.65194429175672
36.65214346474855
37.95056511397607
37.9493354568483
37.94922953444271
36.97454454409876
36.97613560739723
36.97466654030291
36.97630342792091
35.67490928778718
35.67475851491734
35.67672590075171
36.64962458183105
36.65130800115966
36.64975410409511
36.65148715390899
37.9509567114914
37.9505349612335
36.97661148787466
36.97609554603494
35.67667038344099
35.67733186179236
36.65181490417057
36.65126432185488
37.94915571198582
37.94880248518449
37.95008928678966
36.97446390844457
36.97411351451608
36.97602628855633
36.97555828699905
35.67599707344683
35.67466037460854
35.67658656832133
36.64953934088899
36.64917182806072
36.65119144491587
36.65069407578291
37.95035761071727
37.9497427828446
36.97588024571873
36.97514102738454
35.67639779368485
35.67547670726792
36.6510352505282
36.65025167867831
37.78607953638144
37.94992619855532
37.94935963568793
36.97396647555607
36.97345766002685
36.97536249795532
36.97468828923667
35.67346744808104
35.67575332756278
35.67492609066208
36.64901776944999
36.64848460134575
36.65048659598501
36.64977451572947
37.94951576776144
36.97487227649967
35.6751475962465
36.64996800216965
37.94915079669669
36.97326839779309
36.97444222191959
35.67462913305206
36.64828809652219
36.64951573549455
35.34991481376773
35.34975766220968
35.35181791529724
34.37687759279307
34.37456847362471
34.37713984822833
34.37474177401756
34.04943022113066
33.07620704013566
33.07373568873201
34.0520766070067
33.07649918881051
34.04960737234213
33.07391682753232
31.77220504138031
31.77204461528815
31.77428490123384
32.75085877724957
32.74839948080337
32.75115238599612
32.74857865499936
35.34917634978152
35.34779120238898
35.02265628724613
34.37393516417207
34.3740867289013
34.69759637433395
34.69754566317691
33.07308422631813
34.04893970731351
33.0732398327706
34.04729512657114
33.39687214616445
33.72204760076934
33.396820503834
31.77147583303469
32.09562260355697
32.09557728687066
32.74775753255408
32.74791077359372
32.74631655134291
32.42093930464899
31.77410991766284
31.77151321437253
31.7733957334999
32.74989835624184
32.74780140143312
32.75067111607231
32.74828407852528
35.02236793349125
34.37341975274188
34.69725267107805
35.3490856837063
35.34763051459535
34.3738368397566
34.69742928954005
34.0482623566089
33.72175099270234
33.39652680016161
34.04868550763959
33.07298369796508
34.04712449626822
33.3967030452996
32.0954745021238
31.77102394738097
32.09532086494566
32.74724313311431