/*--------------------------------*- C++ -*----------------------------------*\
  =========                 |
  \\      /  F ield         | OpenFOAM: The Open Source CFD Toolbox
   \\    /   O peration     | Website:  https://openfoam.org
    \\  /    A nd           | Version:  7
     \\/     M anipulation  |
\*---------------------------------------------------------------------------*/
FoamFile
{
    version     2.0;
    format      ascii;
    class       surfaceScalarField;
    location    "0";
    object      phi;
}
// * * * * * * * * * * * * * * * * * * * * * * * * * * * * * * * * * * * * * //

dimensions      [0 3 -1 0 0 0 0];

internalField   nonuniform List<scalar> 
36844
(
1.841259398427511
0.000169716221647106
1.755886461449015e-05
-0.0001768322439354528
1.841249104691954
0.0001742796523558354
1.79942396318017e-05
-0.0001819801561461379
1.841239149689159
0.0001835085035160266
1.887607605461744e-05
-0.000192429576460606
1.841229808134401
0.0001976019729438336
2.022627490307845e-05
-0.00020848669278645
1.84122149255704
0.0002168452161348744
2.207684068369237e-05
-0.0002306064790860467
1.841214818242733
0.0002415879836154252
2.446836100548423e-05
-0.0002593820300493716
1.841210683937376
0.0002722070314389734
2.744703612165964e-05
-0.0002955197616006136
1.841210370090536
0.0003090429944332501
3.105923930490878e-05
-0.0003397883863396775
1.841215651985287
0.0003522985026194192
3.53421042856625e-05
-0.0003929225010779191
1.841228915570888
0.0004018802436198887
4.030809234936035e-05
-0.0004554519207218277
0.0004571652674083654
4.592118037269681e-05
1.841253245705474
-0.0005274165817301562
1.841263961858218
0.0001596185579335008
1.597707557721151e-05
1.841258333543109
0.0001635795608763146
1.632840733631955e-05
1.841253243158576
0.0001715616443034729
1.703724446095848e-05
1.841249051377588
0.0001836782965418882
1.81154582179488e-05
1.84124623532449
0.0002000817349454564
1.957953513453958e-05
1.841245437290596
0.0002209374071071579
2.144861163861117e-05
1.841247519900378
0.000246383248395432
2.374117431654566e-05
1.841253625598682
0.0002764675251256676
2.646977224225578e-05
1.84126523372629
0.0003110575034143824
2.96328730016171e-05
1.841284200594671
0.0003497105211991425
3.320285524464203e-05
0.0003915008368433721
3.710923732087465e-05
1.841312755789644
1.841267922861135
0.0001470121088962978
1.452485816853103e-05
1.841266315626541
0.0001503817050547696
1.480509144360324e-05
1.841265359810819
0.0001571491664358115
1.536829458359534e-05
1.841265454815968
0.0001673638737855754
1.621941853611292e-05
1.841267090996666
0.0001810810612685626
1.73644942310859e-05
1.841270883131912
0.0001983365689475426
1.880870396067102e-05
1.841277604177094
0.0002191088233494333
2.05533811623576e-05
1.841288215576952
0.0002432645587691392
2.259156789108437e-05
1.841303886744086
0.0002704846288713119
2.490170860829135e-05
1.841325990910313
0.000300167258446816
2.743909801239476e-05
0.0003313093067969337
3.012494681569161e-05
1.8413560574947
1.841271292457321
0.0001323428829526585
1.321803914170051e-05
1.841273083087941
0.0001351517757155156
1.34393000007277e-05
1.841275574518178
0.0001407754709057195
1.388226649114854e-05
1.841279172003482
0.0001492190429437591
1.454734680299415e-05
1.841284346504324
0.0001604726657904772
1.543389579237171e-05
1.8412916553863
0.0001744891304058102
1.653855801007077e-05
1.841301759912525
0.000191151476679675
1.785282179409587e-05
1.841315435647104
0.0002102292128800425
1.935961273855633e-05
1.841333569373681
0.0002313221296170518
2.102877417087257e-05
1.841357132958677
0.0002537922855150416
2.281138916972913e-05
0.000276687933452093
2.463314610652288e-05
1.841387121187303
1.841274101350081
0.0001160157704272513
1.206703300888164e-05
1.8412787067831
0.0001183060250347302
1.224031909430323e-05
1.841284018090207
0.0001228782750217761
1.258588999979341e-05
1.841290425626298
0.0001297101654152078
1.310134271190768e-05
1.841298362968942
0.000138753281371674
1.378204321613721e-05
1.841308317732583
0.0001499145487762412
1.461981941477275e-05
1.841320837648738
0.0001630304473345455
1.560111468279372e-05
1.841336528563801
0.0001778337503232983
1.670454901869648e-05
1.841356039529558
0.000193913280801116
1.789788443065015e-05
1.841380028606615
0.0002106687119485465
1.913449799419789e-05
0.0002272650115717649
2.034966447668074e-05
1.841409101865146
1.84127639160468
9.838743211950998e-05
1.107800427898925e-05
1.841283279033092
0.000100205537118182
1.121306106708375e-05
1.841290849980609
0.0001038260068948577
1.148132200006053e-05
1.841299468742278
0.0001092126336527902
1.187877157855629e-05
1.841309524236323
0.0001162991882284511
1.239860062187638e-05
1.841321433631151
0.0001249749145199833
1.303024110197555e-05
1.841335640951726
0.0001350650717435986
1.375805653682782e-05
1.841352608094283
0.0001463069080995484
1.455970117803041e-05
1.841372794960733
0.0001583222053869503
1.540421049841548e-05
1.841396624906224
0.0001705887932626045
1.624997448601515e-05
0.0001824152712445862
1.704288205190965e-05
1.841424431765766
1.841278209709685
7.976499762044284e-05
1.025399544118933e-05
1.84128689950289
8.115641293461267e-05
1.035933251611957e-05
1.841296236607377
8.392120613779714e-05
1.056769764318233e-05
1.841306555296825
8.801969942130402e-05
1.087424610091148e-05
1.841318199962643
9.338337971808212e-05
1.127114426933257e-05
1.841331523788327
9.990419404510571e-05
1.174689623897319e-05
1.841346882788102
0.0001074206045761255
1.228546903573359e-05
1.841364623391513
0.0001157010485644304
1.286525772772299e-05
1.8413850615486
0.0001244260729293956
1.345797678453664e-05
1.841408451384247
0.0001331713341343743
1.402762498261525e-05
0.0001413948583863681
1.452975789335597e-05
1.841434942040387
1.841279601124981
6.040919537206093e-05
9.595947958018769e-06
1.841289664296113
6.141429091634962e-05
9.678952480385133e-06
1.841300335100613
6.340796257611093e-05
9.842440509854896e-06
1.841311918977155
6.635461235269353e-05
1.008121210586194e-05
1.841324720776939
7.019450343648259e-05
1.038707813449946e-05
1.841339040198889
7.483635847904679e-05
1.074841530623892e-05
1.841355163232095
8.014795674646886e-05
1.114961624435551e-05
1.841373348415928
8.594537807482538e-05
1.157048813382719e-05
1.841393806809819
9.198199665625481e-05
1.19856838648238e-05
1.841416674908459
9.793894420304719e-05
1.236429260842414e-05
0.0001034194934539594
1.266976548184288e-05
1.841441980509124
1.841280606220508
4.05406735682601e-05
9.103571997570971e-06
1.841291657967773
4.119185972668785e-05
9.170685468662995e-06
1.841303281750399
4.248186603011713e-05
9.302315409653429e-06
1.841315758868262
4.438433496264524e-05
9.493160959550686e-06
1.841329362631967
4.685572891646916e-05
9.735012397982246e-06
1.841344351797147
4.983072540198918e-05
1.00164694600835e-05
1.841360960653404
5.321648421350384e-05
1.03226178609363e-05
1.8413793850345
5.688628119535712e-05
1.063471736273431e-05
1.841399763757366
6.067329781429691e-05
1.092997739959874e-05
1.841422155457714
6.436572191419329e-05
1.118152334100822e-05
6.77047176154133e-05
1.135868055968103e-05
1.84144651155421
1.84128125740672
2.034849246640874e-05
8.776045161947719e-06
1.841292947974054
2.066831589786489e-05
8.832978181772052e-06
1.841305184219337
2.130138859477535e-05
8.944233594521562e-06
1.841318230262189
2.223377668997273e-05
9.104516943291658e-06
1.841332337628486
2.344265147048396e-05
9.305712803753798e-06
1.841347737555964
2.489409230086537e-05
9.536707291291419e-06
1.8413646304504
2.654038594390522e-05
9.783205468094529e-06
1.841383172051152
2.831708757340558e-05
1.00275944180603e-05
1.841403456181425
3.014024930546624e-05
1.024891975984786e-05
1.841425494453453
3.190439192234417e-05
1.042305930099007e-05
3.348197196092566e-05
1.052319026457731e-05
1.841449194009975
1.841281577230134
8.612533036966835e-06
1.841293581046756
8.664500683153165e-06
1.841306116607399
8.765829235812833e-06
1.841319439136953
8.911248395948997e-06
1.84133378906931
9.092720517855942e-06
1.841349383849618
9.299313362021187e-06
1.841366407152051
9.517084857835518e-06
1.841384995212849
9.729028039062957e-06
1.84140522032407
9.915139235116855e-06
1.841427072033468
1.005268356379932e-05
1.011673743509502e-05
1.841450437268854
1.841259865456095
0.0001680194301026438
3.453565561243454e-05
-0.0001750204070414616
1.841250050641491
0.0001724927072545701
3.538032876744971e-05
-0.0001800639813139139
1.841240598052977
0.0001815359813597473
3.709020212857223e-05
-0.0001902975182840802
1.84123179324385
0.0001953376912568606
3.970569801481361e-05
-0.0002060123044575929
1.841224057950669
0.0002141663463025841
4.328554545788714e-05
-0.0002276397572680803
1.84121801347969
0.0002383486861358614
4.790352478837677e-05
-0.0002557393778507864
1.841214558762459
0.0002682317383509091
5.364232181444174e-05
-0.0002909723058504115
1.841214964337269
0.0003041198543980123
6.058257911893776e-05
-0.0003340487679032336
1.841220979020946
0.0003461741869066548
6.878433414814783e-05
-0.0003856310991649013
1.841234936753317
0.0003942584267684135
7.825703453849029e-05
-0.0004461651001849092
0.0004477126601234343
8.891360549994151e-05
1.841259833991806
-0.0005156023220124575
1.841264338733254
0.0001580607584072158
3.143828449633597e-05
1.841259093915582
0.0001619454936828003
3.212043975002607e-05
1.841254399762875
0.0001697713549710722
3.34960247328983e-05
1.841250621898865
0.0001816444070499301
3.558660756146526e-05
1.841248240290497
0.0001977056515207953
3.842183977892643e-05
1.841247896531939
0.0002181055673560194
4.20354904816141e-05
1.841250446878533
0.0002429636896721376
4.645887804852811e-05
1.841257018669765
0.0002723073594906179
5.171047754970459e-05
1.841269063260818
0.0003059823640398918
5.778010642328497e-05
1.841288390986669
0.0003435277152994621
6.460584293423861e-05
0.0003840087599062852
7.204201880968132e-05
1.841317162107153
1.841268223468518
0.000145610278778463
2.85931401053275e-05
1.841266919776885
0.0001489166149939013
2.913766317706229e-05
1.841266272814948
0.0001555550980185672
3.023151484629009e-05
1.841266683143331
0.0001655702356094326
3.188326324673015e-05
1.841268640206337
0.0001790101004408043
3.410298382727448e-05
1.841272754654256
0.0001959013741079438
3.689845098281088e-05
1.841279790548327
0.0002162119222788304
4.026925623636885e-05
1.841290693674324
0.0002397976272898833
4.419817578787684e-05
1.841306608612058
0.000266330116308854
4.863902051771881e-05
1.841328872031269
0.0002952030962788399
5.350029932450814e-05
0.0003254182297712003
5.862450470893334e-05
1.841358963005185
1.841271529804757
0.0001311081939848447
2.603159032313103e-05
1.841273558259928
0.0001338656240270842
2.646183759741708e-05
1.841276287952553
0.0001393848425550459
2.73228309873496e-05
1.84128012300819
0.0001476679084548425
2.861462011075306e-05
1.841285531479997
0.0001587007168127507
3.033480953270886e-05
1.841293065202422
0.0001724308916732602
3.247531991294327e-05
1.841303376253322
0.000188736061261352
3.501763389834878e-05
1.841317226163383
0.0002073811152128328
3.792621670982305e-05
1.841335481592068
0.0002279636114081995
4.113985220044529e-05
1.841359087164783
0.0002498480693326818
4.456084525625946e-05
0.0002720930252259953
4.804252353578594e-05
1.841389002993367
1.841274287234768
0.0001149548352702124
2.377442827159239e-05
1.841279077478433
0.0001172040811496799
2.411162013914054e-05
1.84128457101842
0.0001216934004020231
2.478379390424834e-05
1.841291155816506
0.0001283987083695592
2.57857466721135e-05
1.841299261654882
0.0001372692568772714
2.710766659276732e-05
1.841309370372016
0.0001482094016389334
2.873259431564647e-05
1.841322021307249
0.0001610533913378731
3.063285125250341e-05
1.84133780865956
0.0001755329632779699
3.276535061952062e-05
1.841357366049969
0.0001912383065892023
3.506580086107857e-05
1.841381332120655
0.0002075744718155192
3.744202642567466e-05
0.000223717812571456
3.976701022760243e-05
1.841410289989142
1.841276536480663
9.750351449365804e-05
2.183411578338637e-05
1.841283566797685
9.928973904283987e-05
2.209708817642812e-05
1.841291276326416
0.0001028459583307344
2.261923727582419e-05
1.841300026365033
0.0001081350750691374
2.339236815435453e-05
1.841310201799644
0.0001150897611783447
2.440266374494831e-05
1.841322214361725
0.0001235982652498909
2.562881756207934e-05
1.841336500879194
0.000133485421119028
2.703951136907992e-05
1.841353514002876
0.0001444892717021755
2.859027111751566e-05
1.841373702215201
0.0001562344725296702
3.021983413333145e-05
1.84139747546142
0.000168204869872568
3.184633202124576e-05
0.0001797194327131317
3.336385505292534e-05
1.841425152869753
1.841278322705193
7.905910740482966e-05
2.021696879239693e-05
1.841287123017011
8.042656647714149e-05
2.042219529130258e-05
1.841296565443159
8.314321985575491e-05
2.082801192154477e-05
1.841306981051105
8.716900860615873e-05
2.14247066554637e-05
1.841318710303739
9.24350383850853e-05
2.219661646511857e-05
1.841332101517565
9.883311947604765e-05
2.312083028752609e-05
1.841347504729796
0.0001062021706392694
2.416550929953368e-05
1.84136525920367
0.0001143121439379886
2.528791355558983e-05
1.841385672612546
0.0001228467383165074
2.643230420775685e-05
1.841408990024263
0.0001313870707115645
2.752801415795075e-05
0.0001393996369241198
2.848814376111488e-05
1.841435351435742
1.841279690164257
5.988102165751854e-05
1.892514086573641e-05
1.841289839670395
6.086907080771198e-05
1.908694402632467e-05
1.841300591231885
6.282856818053863e-05
1.94055326971919e-05
1.841312247080893
6.572380748082196e-05
1.987056625239584e-05
1.841325108384794
6.949502986230982e-05
2.046578497529813e-05
1.841339470568769
7.405119715997444e-05
2.116815578349418e-05
1.841355614703076
7.92608321944499e-05
2.194682258962372e-05
1.841373793798084
8.494157295046988e-05
2.276196619987972e-05
1.841394212944977
9.084953602211954e-05
2.356374121603754e-05
1.841417002590454
9.667018278001274e-05
2.429153687638305e-05
0.0001020130873119366
2.487390254293976e-05
1.84144218500456
1.841280678213408
4.018933418592496e-05
1.7958317498406e-05
1.841291799167763
4.082959975694142e-05
1.808920429312146e-05
1.841303486471205
4.209775019112901e-05
1.834583201341177e-05
1.84131601830326
4.396743494354634e-05
1.871770350194633e-05
1.841329664552092
4.639521747432519e-05
1.918857808393924e-05
1.841344680203804
4.931608257627927e-05
1.973593442525809e-05
1.841361295443804
5.263785432418899e-05
2.033035779902544e-05
1.841379701761156
5.623501793650119e-05
2.093495696442422e-05
1.841400033591732
5.994272450442707e-05
2.150496032018419e-05
1.841422345494991
6.355211444302043e-05
2.198769017465919e-05
6.68084837609603e-05
2.232316338112508e-05
1.841446585617241
1.841281318479005
2.017309236471363e-05
1.731507948951907e-05
1.841293067318205
2.048758939565687e-05
1.742615131085506e-05
1.841305356155956
2.111001352034238e-05
1.764313447957529e-05
1.841318446085793
2.202645670428557e-05
1.795556736792263e-05
1.84133258541722
2.321417378021444e-05
1.834742731034309e-05
1.841348001975561
2.463943884098001e-05
1.879679480391394e-05
1.84136489260743
2.625491728981365e-05
1.927551277245441e-05
1.841383409467738
2.799681419132542e-05
1.97489398849155e-05
1.841403642981611
2.978220155850258e-05
2.017593063388116e-05
1.841425601864351
3.150708835629772e-05
2.05092043512448e-05
3.304596836283288e-05
2.069628859943513e-05
1.841449191282862
1.84128163297602
1.69939205973917e-05
1.841293689742315
1.709532542742651e-05
1.841306272599141
1.729298746629602e-05
1.84131963380284
1.757650301155895e-05
1.841334010682303
1.793001646888113e-05
1.841349617453986
1.83319822082265e-05
1.841366634504368
1.87549534116069e-05
1.841385194855079
1.916549295858759e-05
1.841405367868433
1.95243288675593e-05
1.841427140744322
1.978689714713736e-05
1.990442719150096e-05
1.841450399023948
1.841260771540433
0.0001646968674452165
5.038302428752856e-05
-0.0001714745064410446
1.841251884829632
0.000168995810994943
5.15877650285694e-05
-0.0001763165360322491
1.841243403706088
0.0001776804925932362
5.402424348012604e-05
-0.0001861334097523122
1.841235633360796
0.0001909191261323649
5.774532110021849e-05
-0.0002011884035104135
1.841229011675935
0.0002089490293416489
6.282700012090954e-05
-0.0002218687983794982
1.841224169510696
0.0002320540217905426
6.936311169110808e-05
-0.0002486714425746667
1.841222003604827
0.0002605260289057361
7.745573853024601e-05
-0.0002821735389939677
1.841223762393369
0.0002946027148201326
8.719879571429921e-05
-0.0003229777190340388
1.841231140425322
0.0003343699069042539
9.865109330320493e-05
-0.0003716146969482037
1.841246368100492
0.0003796147378167803
0.0001117940252566292
-0.0004283794023659268
0.0004296144402171737
0.0001264682391218283
1.841272267700198
-0.0004930686723831373
1.841265070483971
0.0001550087604174888
4.589717801082578e-05
1.841260569511221
0.0001587458570782019
4.68713677087351e-05
1.841256642339587
0.0001662695018849615
4.883418799472823e-05
1.841253663264055
0.0001776718144883138
5.1812995958446e-05
1.841252116668358
0.0001930727971264156
5.584466887735136e-05
1.841252641517826
0.0002125950441133961
6.096962007058447e-05
1.841256080290734
0.0002363240570942149
6.722207845089675e-05
1.841263529585447
0.0002642488827340406
7.461501649220234e-05
1.841276385256222
0.0002961766838800662
8.311766029578468e-05
1.841296367802883
0.0003316147533447343
9.26232822572109e-05
0.0003696157377603981
0.0001029053175869512
1.841325503208395
1.841268807580633
0.0001428624938832678
4.177309682557662e-05
1.841268093156017
0.0001460462459825573
4.255170008204325e-05
1.84126804465221
0.0001524349409813619
4.411458100199871e-05
1.841269064246674
0.0001620639487831743
4.647153587939902e-05
1.841271638915359
0.0001749679644782242
4.963314921783555e-05
1.841276370530835
0.000191156663376546
5.360521764430359e-05
1.841284005116378
0.0002105784855594771
5.838024372906148e-05
1.841295457386607
0.0002330696711735097
6.392511873097952e-05
1.841311823325675
0.0002582857278383699
7.016403909744733e-05
1.841334368787294
0.0002856137074118692
7.695588530509629e-05
0.0003140668953705018
8.406600878936082e-05
1.841364476126977
1.841271991332746
0.0001286869270314768
3.805709534126606e-05
1.841274481851045
0.000131344536155032
3.867303097315751e-05
1.841277673660016
0.0001366612071223016
3.990475740913013e-05
1.841281968262393
0.0001446333643713161
4.175060381775646e-05
1.841287827614224
0.000155238947424017
4.420447657650796e-05
1.841295792353009
0.0001684160546199716
4.725119185032463e-05
1.841306496301954
0.0001840324870365572
5.08596853250485e-05
1.841320673443292
0.0002018450331036092
5.497371522461223e-05
1.841339151305284
0.00022144795175414
5.949976805711847e-05
1.841362821975281
0.0002422116833145082
6.429220084077298e-05
0.0002632158483258035
6.913634000278311e-05
1.841392579207387
1.841274648941877
0.0001128734541424592
3.478023047703727e-05
1.841279798521981
0.000115043084500922
3.52634935211143e-05
1.841285645817266
0.0001193714716735815
3.622623596806365e-05
1.841292573845408
0.0001258313214598451
3.76597631372988e-05
1.841301004721473
0.0001343675892591313
3.954815046943333e-05
1.841311408785387
0.0001448799676544644
4.186461920257826e-05
1.84132430884803
0.0001571988009771985
4.456647651317024e-05
1.841340276361919
0.0001710543384567877
4.758853321362722e-05
1.841359915036833
0.0001860400183111502
5.083506123528783e-05
1.841383826140266
0.0002015719475920718
5.417066044460549e-05
0.000216849121888563
5.74109438897719e-05
1.841412548934422
1.841276818572226
9.576879430667644e-05
3.196147460451657e-05
1.841284126909159
9.749307461519378e-05
3.233876322385957e-05
1.841292105667051
0.000100924503582112
3.308744924887249e-05
1.841301110113221
0.0001060243565473531
3.419488885012578e-05
1.841311517099854
0.000112723325275576
3.563994300409212e-05
1.841323727618729
0.0001209079370616006
3.739033135272771e-05
1.841338164385519
0.0001304024673610104
3.939908017995693e-05
1.841355262041773
0.0001409468192694499
4.160013586186702e-05
1.841375446966126
0.0001521715737149966
4.390335620030328e-05
1.841399103314579
0.0001635725926758212
4.618934012765696e-05
0.0001744892373123793
4.830491701915652e-05
1.841426522138669
1.841278542852507
7.767335831943002e-05
2.961082363128732e-05
1.841287558338166
7.899423700543539e-05
2.990554913201811e-05
1.841297205520021
8.161732060329997e-05
3.048801495649427e-05
1.841307809081925
8.550187585854019e-05
3.1343627407473e-05
1.841319701711669
9.057836837691363e-05
3.244894564204257e-05
1.841333222149004
9.673847755260207e-05
3.376985431660111e-05
1.841348708737442
0.0001038221763467035
3.525921385912532e-05
1.84136648679619
0.0001116025498906107
3.685412609916428e-05
1.841386847985085
0.0001197696190943911
3.84730717734713e-05
1.841410019959191
0.0001279152883217785
4.00133461690403e-05
0.0001355226256196985
4.134944810121281e-05
1.841436125267961
1.841279863731174
5.884390630065071e-05
2.773213306131668e-05
1.841290181421755
5.979879132667065e-05
2.796470122980352e-05
1.841301090075277
6.169182292126149e-05
2.842237875083987e-05
1.841312885574439
6.448712690598765e-05
2.908981798038479e-05
1.84132586182082
6.812496481245489e-05
2.994294415249226e-05
1.841340305847851
7.251484748358548e-05
3.094776088121642e-05
1.841356489110936
7.752684381976489e-05
3.205889392887749e-05
1.841374653865401
8.298173267462515e-05
3.321803077938104e-05
1.841394993654347
8.86410733520685e-05
3.435249983717177e-05
1.841417627296472
9.419883701866637e-05
3.537434775696289e-05
9.927689900489676e-05
3.618039713523659e-05
1.841442566529985
1.841280818616212
3.949933015853559e-05
2.632554883064131e-05
1.841292074453349
4.011834011638103e-05
2.651382026954023e-05
1.841303885379261
4.134396366865866e-05
2.688276729713575e-05
1.84131652341236
4.314988839837483e-05
2.741691084397973e-05
1.841330251703482
4.549291159360352e-05
2.809234214781691e-05
1.841345317844173
4.830866367174903e-05
2.88759794813133e-05
1.841361943999814
5.150631776263908e-05
2.972473024698244e-05
1.841380313206074
5.49627725803248e-05
3.058471277145014e-05
1.841400551418005
5.851706892150641e-05
3.139075459555073e-05
1.841422705358461
6.196613666326971e-05
3.206645175109659e-05
6.506332854637784e-05
3.252514011424042e-05
1.841446716953584
1.841281437626193
1.982858390192632e-05
2.538947095181578e-05
1.841293300076913
2.013271111422907e-05
2.554933162904639e-05
1.841305691304015
2.073440940804281e-05
2.586146354241444e-05
1.841318866435543
2.161983282618262e-05
2.631049337703197e-05
1.841333067455579
2.276641545312137e-05
2.687290562799443e-05
1.841348515498268
2.414083247724887e-05
2.751658541792303e-05
1.841365400454634
2.569651115502255e-05
2.820036508208744e-05
1.841383867502458
2.737094828289301e-05
2.887371825840038e-05
1.841404000485703
2.908322569109438e-05
2.947679247711211e-05
1.841425802550376
3.073226646651644e-05
2.99410114202649e-05
3.219653540043055e-05
3.019050914561112e-05
1.84144917512446
1.841281741753406
2.492202223436379e-05
1.841293901775174
2.506801625199499e-05
1.841306576727419
2.535244610157857e-05
1.841320013018162
2.576004660571162e-05
1.841334441872618
2.626757895716245e-05
1.841350071176905
2.684351192662591e-05
1.841367074891792
2.744775111551689e-05
1.841385579779825
2.803155460386874e-05
1.8414056495265
2.853780910191032e-05
1.841427266819281
2.890187190610982e-05
2.905319511564334e-05
1.841450314587753
1.841262063870715
0.0001598848818247234
-0.0001663436347147834
1.841254498449999
0.0001639365123323056
-0.0001709002521103964
1.841247395321247
0.0001721130988840969
-0.0001801278775113685
1.841241084498634
0.0001845554967315806
-0.0001942518885795458
1.841236022989506
0.0002014590541238259
-0.0002136001709589813
1.841232850504511
0.0002230502890666674
-0.0002385858970772487
1.841232455022023
0.0002495483399612013
-0.0002696752859188658
1.84123604731974
0.0002811040434843753
-0.0003073304919812366
1.841245238902083
0.0003177071299184998
-0.0003519130693438166
1.8412621091896
0.0003590502035586207
-0.0004035278200556779
0.0004043383981139404
1.841289233500653
-0.0004617816822890791
1.841266115501227
0.0001505848416802302
1.841262675036546
0.0001541121319754489
1.841259837719065
0.0001612067601919132
1.841257988056057
0.0001719420084596445
1.841257614224432
0.0001864096746211141
1.841259348555454
0.0002046952195562601
1.841264010725538
0.0002268393848936512
1.841272650406168
0.0002527817857709704
1.841286581975716
0.0002822812815566067
1.841307397384142
0.0003148082726767143
0.0003494067343275055
1.841336934071535
1.841269642791517
0.0001388763239288678
1.841269769664777
0.0001418855818238724
1.841270572967332
0.0001479190460336388
1.841272455722191
0.0001569997856822034
1.841275899769371
0.0001691446051852029
1.841281492720796
0.0001843406739730148
1.84128995312642
0.0002025111518734877
1.841302149901949
0.000223467464110172
1.841319108966822
0.0002468461207505648
1.841341995845795
0.0002720293214082404
0.0002980517787134163
1.841372057949066
1.841272652049398
0.0001251718207096508
1.841275803129008
0.0001276871114250576
1.841279653706991
0.0001327152421472549
1.841284600541726
0.0001402451028936082
1.84129109583813
0.0001502440874082215
1.841299663198683
0.0001626378561609224
1.841310909438633
0.0001772817362397545
1.841325528558627
0.0001939229182048798
1.841344292167499
0.0002121532853891495
1.841368018303129
0.0002313542656178333
0.0002506379680560438
1.841397508439577
1.841275167340115
0.0001098497632215623
1.841280831259738
0.0001119057143581938
1.841287183567715
0.0001160044823463193
1.841294599526222
0.0001221145366656629
1.841303489606915
0.0001301752391498212
1.841314307078775
0.0001400803808216046
1.841327550620591
0.0001516557138408139
1.841343758925774
0.000164630560178125
1.841363493147711
0.0001786043500260348
1.841387302005558
0.0001930103527172378
0.0002070810496992319
1.841415663867735
1.841277223291243
9.324724140842686e-05
1.841284930027712
9.488295592309195e-05
1.841293293622044
9.813607980130572e-05
1.84130266022872
0.000102965796777456
1.841313394748568
0.0001093003293586411
1.841325882411809
0.0001170242365706625
1.841340525466933
0.0001259616158673201
1.841357732715664
0.000135855755225377
1.841377899150409
0.0001463464854392191
1.841401372702542
0.0001569475787590594
0.0001670280773968696
1.841428405470268
1.841278859005754
7.565807928081256e-05
1.841288183151633
7.691228154517136e-05
1.841298123339001
7.940150420647835e-05
1.841308994761292
8.308420528635454e-05
1.841321118655799
8.789017034380823e-05
1.841334819791072
9.371120641838709e-05
1.841350419606286
0.0001003891800949859
1.841368223445841
0.0001077020955972633
1.841388500243738
0.000115349464747217
1.841411453201196
0.0001229390158008708
0.0001299777635566102
1.841437180685247
1.841280113207986
5.733505763316773e-05
1.841290672374299
5.824242539631543e-05
1.841301806040065
6.004027544732821e-05
1.841313800726354
6.269259257422977e-05
1.841326939691839
6.613981649650218e-05
1.841341497764802
7.029243912355563e-05
1.841357732521772
7.502297691040027e-05
1.841375870815
8.015696171035451e-05
1.841396089794763
8.546399714724007e-05
1.84141849194895
9.065044346592207e-05
9.535588986864241e-05
1.841443074448719
1.841281020575749
3.849519557299512e-05
1.841292470224346
3.908372922206956e-05
1.841304458357214
4.024840694683023e-05
1.841317247950286
4.196302989085897e-05
1.841331092314448
4.41848170738748e-05
1.841346228302569
4.685043609927859e-05
1.841362866506572
4.987112504050201e-05
1.841381177850437
5.312738179477005e-05
1.841401276241101
5.646395396506958e-05
1.841423197395343
5.968616815966698e-05
6.255896037998807e-05
1.841446874673565
1.841281609109402
1.932714975467096e-05
1.841293634902087
1.961640214667058e-05
1.841306172980154
2.018838431674288e-05
1.841319469737456
2.102936632788394e-05
1.841333757933526
2.211707905039974e-05
1.841349248991506
2.341882381529103e-05
1.841366122763347
2.48891790811518e-05
1.841384514422629
2.646755589072007e-05
1.841404498455283
2.807597440604891e-05
1.841426070187595
2.961757725937809e-05
3.097653399183426e-05
1.84144912593851
1.841281898361785
1.841294206884243
1.841307013962137
1.841320557450189
1.841335059678244
1.841350719346764
1.841367701140172
1.841386122841101
1.841406040058146
1.841427429144311
1.841450169492532
0.0005166753515812755
5.206293600450329e-05
1.84129242687272
-0.0006079194538878443
0.0004348025419058761
4.121691024750023e-05
1.84135341169069
0.0003623729993806461
3.283353208642938e-05
1.841395653506389
0.0002986686113244805
2.638741003124618e-05
1.841424438166271
0.000242594912187144
2.145726163631452e-05
1.841443718303687
0.0001929255458966254
1.771511217438855e-05
1.841456386020866
0.0001484333271264404
1.491140588174559e-05
1.841464522854295
0.0001079505385373045
1.286040093617626e-05
1.841469602897789
7.038717336407207e-05
1.142772386459854e-05
1.841472647196554
3.472523086119978e-05
1.052064798554579e-05
1.841474335305477
1.008108463196322e-05
1.841475081415901
0.0005050407754723096
0.0001005046011871874
1.841299320696571
-0.0005929691438063704
0.0004258096579334847
7.981778976073801e-05
1.841357792347324
0.0003554582179390309
6.376396663882905e-05
1.841398384011875
0.0002933800210200843
5.137635444244947e-05
1.841426092247268
0.000238580693183044
4.187285219393947e-05
1.841444673727672
0.000189917998706455
3.464031976794234e-05
1.841456890357911
0.0001462332057564414
2.920952837309421e-05
1.841464738107419
0.0001064137000006621
2.522956952502777e-05
1.841469635343053
6.941414936288999e-05
2.244559821207277e-05
1.841472567294836
3.425370946285062e-05
2.068122535092701e-05
1.841474191146687
1.982571378592969e-05
1.841474908105205
0.0004828499484166197
0.0001422841577346072
1.841312222504122
-0.0005645843073196488
0.0004085886563440884
0.0001135614373262836
1.841366020854671
0.0003421699757783951
9.113396185256283e-05
1.841403524813529
0.0002831855753555603
7.373148631728575e-05
1.841429208477138
0.0002308223261355716
6.031475805201641e-05
1.841446470278918
0.0001840923666001297
5.006060306184426e-05
1.84145783181615
0.0001419638876523186
4.233333294105e-05
1.841465129943444
0.0001034273226092727
3.665389093635928e-05
1.841469678774843
6.752149939369704e-05
3.267217038562077e-05
1.841472396205923
3.333599871989696e-05
3.014465684062882e-05
1.841473897194845
2.891793393248564e-05
1.841474558367224