/*--------------------------------*- C++ -*----------------------------------*\
  =========                 |
  \\      /  F ield         | OpenFOAM: The Open Source CFD Toolbox
   \\    /   O peration     | Website:  https://openfoam.org
    \\  /    A nd           | Version:  7
     \\/     M anipulation  |
\*---------------------------------------------------------------------------*/
FoamFile
{
    version     2.0;
    format      ascii;
    class       volVectorField;
    location    "0";
    object      U;
}
// * * * * * * * * * * * * * * * * * * * * * * * * * * * * * * * * * * * * * //

dimensions      [0 1 -1 0 0 0 0];

internalField   nonuniform List<vector> 
12678
(
(0.9999971642281595 9.410583332796396e-05 4.938430672825353e-06)
(0.9999915331746829 9.674296524142466e-05 5.06087989644419e-06)
(0.9999860345948702 0.0001020866337834277 5.308896390361169e-06)
(0.9999807945813982 0.0001102740773335962 5.688639816490843e-06)
(0.9999759997567296 0.0001215062793023497 6.209111442288449e-06)
(0.9999719292258042 0.0001360392709537442 6.881726532625931e-06)
(0.999968994126501 0.000154167189485867 7.719478909383286e-06)
(0.9999677862230975 0.0001761912801286796 8.735411054505626e-06)
(0.9999691353050716 0.0002023660484178116 9.939966830342527e-06)
(0.999974171362236 0.0002328100273858977 1.133665097325756e-05)
(0.9999843800017694 0.0002673648986884768 1.291533197982084e-05)
(0.9999984034356375 8.943142721369955e-05 4.493552506090762e-06)
(0.9999952784926038 9.174625186907476e-05 4.592364563339856e-06)
(0.9999923678112357 9.641991083029531e-05 4.791725004644593e-06)
(0.9999898472231828 0.0001035373145569576 5.094972623798107e-06)
(0.999987944233753 0.0001132172324054341 5.506744256589223e-06)
(0.9999869628221975 0.0001255995673066228 6.032422023192895e-06)
(0.9999873116509926 0.0001408240846102049 6.677205276694987e-06)
(0.9999895352001746 0.00015899639109045 7.444623443134407e-06)
(0.9999943454201452 0.0001801354671557312 8.334245531704857e-06)
(1.000002648113022 0.0002040957680327546 9.338303037555611e-06)
(1.00001555281126 0.0002304567438269794 1.043697299649597e-05)
(0.9999994790528102 8.326608624919718e-05 4.085116359899368e-06)
(0.9999985216582949 8.525672307611294e-05 4.163931968513404e-06)
(0.9999978256575626 8.926198739902997e-05 4.322332851636213e-06)
(0.9999975919029673 9.532610659754413e-05 4.561711463281782e-06)
(0.9999980620094668 0.0001035054144911498 4.883764002492891e-06)
(0.9999995360780188 0.0001138545710838197 5.289947988938708e-06)
(1.00000239095029 0.0001264051746548561 5.780638451913063e-06)
(1.000007097605626 0.0001411341434694352 6.353878469367426e-06)
(1.00001423468201 0.0001579187686810297 7.003605546081993e-06)
(1.000024492638913 0.0001764754315417908 7.71724631598607e-06)
(1.000038659696193 0.0001962803407299101 8.472641291913257e-06)
(1.000000394072461 7.585932968112363e-05 3.717573508603302e-06)
(1.000001274393751 7.753710900427357e-05 3.779803125204628e-06)
(1.000002437194758 8.090194893326088e-05 3.904387450635513e-06)
(1.000004090650271 8.596863687046611e-05 4.091441288342091e-06)
(1.000006472698237 9.274950346861806e-05 4.340783191604527e-06)
(1.000009862582369 0.000101241461462333 4.651469440332471e-06)
(1.000014591223389 0.0001114068918182494 5.021106129589529e-06)
(1.000021048794207 0.0001231470155771483 5.444891082718988e-06)
(1.000029686708223 0.0001362664904515815 5.914342735557866e-06)
(1.000041009685075 0.0001504286692635061 6.415703203986324e-06)
(1.000055551772395 0.0001651026988627254 6.928072342459519e-06)
(1.000001156832134 6.744222052988955e-05 3.393853033747953e-06)
(1.000003564277547 6.882690279193536e-05 3.442589745272756e-06)
(1.000006257185428 7.159562928203572e-05 3.539781562441922e-06)
(1.000009439457503 7.574370744230596e-05 3.684752637724061e-06)
(1.000013334834054 8.125532185668859e-05 3.876199654538558e-06)
(1.000018193466362 8.809237839857462e-05 4.111824210404823e-06)
(1.000024296504409 9.617871212455099e-05 4.387813504535684e-06)
(1.000031957204268 0.0001053791667339409 4.698154411508414e-06)
(1.0000415163357 0.0001154734088635537 5.033779996120349e-06)
(1.000053328847324 0.0001261251846540619 5.381577560868157e-06)
(1.00006773801604 0.0001368492911076152 5.723343134066403e-06)
(1.000001778754721 5.822155931226727e-05 3.115688703465749e-06)
(1.000005427802502 5.933719144669554e-05 3.153673425117293e-06)
(1.000009353999412 6.15619386259121e-05 3.229121812517052e-06)
(1.000013750342851 6.487989802477401e-05 3.340904506468971e-06)
(1.000018821369186 6.925993786355226e-05 3.487106424902712e-06)
(1.000024785972631 7.4646707707439e-05 3.66475530993064e-06)
(1.000031878011727 8.094835216146287e-05 3.869453400982811e-06)
(1.00004034349094 8.80209546599273e-05 4.094915956321099e-06)
(1.000050432726144 9.565015357493288e-05 4.332434202679344e-06)
(1.000062385567322 0.0001035311328786155 4.57030532419179e-06)
(1.000076407630755 0.0001112493871480926 4.793310577099573e-06)
(1.000002272464264 4.837759945524598e-05 2.883936217834488e-06)
(1.000006904656858 4.924915022785495e-05 2.913562270158583e-06)
(1.000011799892009 5.098307940510588e-05 2.972164962145009e-06)
(1.000017137456745 5.355878010201716e-05 3.058381715881344e-06)
(1.000023101643736 5.693966284754957e-05 3.170009325749742e-06)
(1.000029881880654 6.106630965145265e-05 3.303814567211217e-06)
(1.000037670751363 6.584740348337346e-05 3.455288166300055e-06)
(1.000046659005676 7.114871236995995e-05 3.618353735922094e-06)
(1.000057026513917 7.678078247183646e-05 3.78505597065092e-06)
(1.000068928080901 8.248658632100567e-05 3.94526952636051e-06)
(1.000082473214445 8.793119899860977e-05 4.086494407506368e-06)
(1.000002650305492 3.806454378675763e-05 2.698860363192798e-06)
(1.000008033282454 3.871532044028847e-05 2.722205385108314e-06)
(1.000013663629285 4.000748978206842e-05 2.768186393396715e-06)
(1.000019706926292 4.192061052283724e-05 2.835340904773696e-06)
(1.000026328898743 4.441985620345321e-05 2.92136572532797e-06)
(1.000033693713263 4.745109831075154e-05 3.022991804879707e-06)
(1.000041960414446 5.09345662232204e-05 3.135829568725006e-06)
(1.000051276869935 5.475743481814404e-05 3.254199787638896e-06)
(1.000061770600091 5.87659844133447e-05 3.370973586981679e-06)
(1.000073535983842 6.275839455252117e-05 3.477457296119296e-06)
(1.000086617634951 6.647975933595082e-05 3.563371541768324e-06)
(1.000002923240916 2.741311096224245e-05 2.560379624316854e-06)
(1.000008847602852 2.786287711826974e-05 2.579255288061448e-06)
(1.000015005182087 2.875456552469292e-05 2.616276208965041e-06)
(1.000021549823169 3.007135207469832e-05 2.669951519873645e-06)
(1.000028632131527 3.178519240219234e-05 2.737972236932487e-06)
(1.000036396590668 3.385356157114352e-05 2.817132035648504e-06)
(1.000044977087869 3.621534388137187e-05 2.903236273388343e-06)
(1.000054490423874 3.878618333629964e-05 2.991014258269037e-06)
(1.000065027473653 4.145380841625892e-05 3.074056143637143e-06)
(1.000076641855818 4.407411191577087e-05 3.144803439658567e-06)
(1.000089336300655 4.646907455763137e-05 3.194628907410299e-06)
(1.000003100071649 1.653455801803513e-05 2.468262701797787e-06)
(1.000009374737018 1.679823735031927e-05 2.484275113623376e-06)
(1.000015872104239 1.732045276251981e-05 2.515565698459172e-06)
(1.000022737553172 1.809026308008012e-05 2.560645390300773e-06)
(1.000030111108243 1.908964639218571e-05 2.617231726055721e-06)
(1.00003812386474 2.029165308310281e-05 2.682198925675686e-06)
(1.00004689303621 2.165811560109093e-05 2.751526537901556e-06)
(1.00005651533447 2.313712169551469e-05 2.820260930079476e-06)
(1.000067058528673 2.466057529745136e-05 2.882508682457212e-06)
(1.000078551249987 2.614231539326814e-05 2.931485428403479e-06)
(1.000090971436183 2.747742001426447e-05 2.95964726191236e-06)
(1.000003186920254 5.525668212861015e-06 2.422274916646939e-06)
(1.000009633497607 5.612516817092584e-06 2.436890817136831e-06)
(1.000016297207813 5.784428799443324e-06 2.465389472572365e-06)
(1.000023319016789 6.037620394259858e-06 2.506288611360673e-06)
(1.00003083352153 6.365892423176011e-06 2.557327645646982e-06)
(1.000038965059881 6.7600336851488e-06 2.615431883068494e-06)
(1.000047822556485 7.20708756035506e-06 2.676680116266231e-06)
(1.000057492883572 7.689553957120091e-06 2.736289135986474e-06)
(1.000068032667355 8.184636662847921e-06 2.788632909876602e-06)
(1.00007945870054 8.663692636083423e-06 2.827317252318551e-06)
(1.000091737439858 9.092087213527218e-06 2.845332403620502e-06)
(0.9999972910505772 9.315305922614257e-05 1.465158381365606e-05)
(0.9999919168713267 9.573737663713112e-05 1.501159736245594e-05)
(0.9999866847747884 0.0001009720279188568 1.574051573868899e-05)
(0.9999817269469825 0.0001089872833223421 1.685586738315718e-05)
(0.9999772354536848 0.0001199732091542785 1.838317110265218e-05)
(0.9999734935349718 0.0001341704656532124 2.035459287919046e-05)
(0.9999709140140377 0.0001518528223444412 2.280638191969499e-05)
(0.9999700860141527 0.0001732957896832931 2.57742614317069e-05)
(0.9999718294464126 0.000198722987164318 2.928556080967574e-05)
(0.9999772529904255 0.0002282184577519215 3.334644193704154e-05)
(0.9999878041247541 0.0002615898442852352 3.792228352667941e-05)
(0.9999985057767039 8.854763739707413e-05 1.333557002068525e-05)
(0.9999955873141262 9.081727008213085e-05 1.362623824303471e-05)
(0.9999928883695838 9.539811288293784e-05 1.421248196060567e-05)
(0.9999905877788372 0.000102370138764344 1.510370600046023e-05)
(0.9999889151634915 0.0001118445511314072 1.631288669474533e-05)
(0.9999881750854004 0.0001239509395241477 1.785490372081379e-05)
(0.9999887742881848 0.000138815999851086 1.974376472784346e-05)
(0.9999912514204424 0.0001565298037748117 2.198819525398876e-05)
(0.9999963067311523 0.0001770942358173819 2.458490046342035e-05)
(1.000004825937898 0.0002003470989236047 2.75086963628103e-05)
(1.000017887262549 0.0002258553856115177 3.06987907867188e-05)
(0.9999995606832635 8.246239371852501e-05 1.212693701468932e-05)
(0.9999987673468161 8.441514158031134e-05 1.235889973689571e-05)
(0.9999982376434764 8.834295921701401e-05 1.282494640215529e-05)
(0.9999981733852265 9.428673486008557e-05 1.35288792515912e-05)
(0.9999988162544378 0.0001022978119570879 1.447522820408043e-05)
(1.000000464983695 0.0001124242987596109 1.566763732752125e-05)
(1.000003492878288 0.0001246899291073755 1.71063667683919e-05)
(1.000008364250119 0.0001390629920978781 1.878461540987432e-05)
(1.000015646741565 0.0001554124407843583 2.0683330066524e-05)
(1.000026014140218 0.0001734484531441084 2.276420550133715e-05)
(1.000040231065937 0.000192646122196903 2.496078324096772e-05)
(1.000000458524564 7.514337837969145e-05 1.103895828715033e-05)
(1.000001467879628 7.679000456173292e-05 1.122219494931156e-05)
(1.000002759962866 8.009144937990371e-05 1.158893366599409e-05)
(1.000004542631574 8.506035808641984e-05 1.213930319465791e-05)
(1.000007052727393 9.170595468523213e-05 1.287244837251224e-05)
(1.000010567202553 0.0001000212618305153 1.378515316568111e-05)
(1.000015412981514 0.0001099643231165153 1.486981566350001e-05)
(1.000021973932118 0.000121432158522446 1.61116395325231e-05)
(1.000030692192206 0.0001342263139921308 1.748492616693302e-05)
(1.000042059619311 0.000148009583765198 1.894844093230919e-05)
(1.000056593448111 0.000162255211486307 2.044003208689916e-05)
(1.000001207309443 6.681883984081303e-05 1.008041098496685e-05)
(1.000003715417813 6.8178411319552e-05 1.022398290957259e-05)
(1.000006507996994 7.089624700989403e-05 1.051022359801182e-05)
(1.000009787890523 7.496636577559197e-05 1.093699388925598e-05)
(1.000013777158181 8.037115664658494e-05 1.150023088358785e-05)
(1.000018723352134 8.707042447901667e-05 1.2192866361847e-05)
(1.000024903774977 9.49859289385825e-05 1.300330291913582e-05)
(1.000032626240991 0.0001039809782108653 1.391340927341525e-05)
(1.000042224166816 0.0001138350035941216 1.489603648829869e-05)
(1.000054043037717 0.0001242138797083478 1.591214749292265e-05)
(1.000068414624647 0.0001346382878501699 1.69078147609128e-05)
(1.000001818096042 5.769343118787726e-05 9.256533767376656e-06)
(1.000005545286795 5.878927013648719e-05 9.368479474904197e-06)
(1.000009547917322 6.097405000270434e-05 9.590782296342615e-06)
(1.00001401754121 6.423115671164464e-05 9.920008049714619e-06)
(1.000019156786096 6.852852645275917e-05 1.035035560316939e-05)
(1.000025181974852 7.380984057956723e-05 1.087286024943193e-05)
(1.000032323535248 7.998252234621158e-05 1.147431597336993e-05)
(1.000040823006767 8.690258967333166e-05 1.213592970845544e-05)
(1.0000509250937 9.435683225872937e-05 1.283176255251219e-05)
(1.000062862903565 0.0001020435281308167 1.352708620516714e-05)
(1.000076834417517 0.0001095540795384872 1.417689481073485e-05)
(1.000002303148392 4.794588439684656e-05 8.56995869069613e-06)
(1.00000699603663 4.880227261565298e-05 8.657304695837409e-06)
(1.000011949883578 5.05056820115351e-05 8.830043315246064e-06)
(1.000017342366978 5.303516065320563e-05 9.084080462564056e-06)
(1.000023355842049 5.635371712282769e-05 9.412807706564393e-06)
(1.00003017734803 6.040162602271768e-05 9.806548085577991e-06)
(1.000037996524073 6.508757879643435e-05 1.025183765679404e-05)
(1.000047000550903 7.027797062642394e-05 1.073057942359836e-05)
(1.000057365105272 7.578498397778226e-05 1.121914152908262e-05)
(1.000069240284996 8.135470800744692e-05 1.168752350828421e-05)
(1.000082730655085 8.665733356528823e-05 1.209878483998679e-05)
(1.000002674484261 3.772943159882746e-05 8.021556231681188e-06)
(1.000008105084412 3.836907391587103e-05 8.090408392512064e-06)
(1.000013780805362 3.963889071875071e-05 8.225992464481928e-06)
(1.000019865576316 4.151830781472493e-05 8.423937663426559e-06)
(1.00002652325146 4.397238922435123e-05 8.677367749630537e-06)
(1.000033915836528 4.694703425492294e-05 8.976535618820891e-06)
(1.000042199879853 5.036279818529317e-05 9.308373422056638e-06)
(1.000051520411951 5.410769035995332e-05 9.65600278135495e-06)
(1.000062001831086 5.802959173850657e-05 9.998275803992215e-06)
(1.000073735253155 6.192934039179625e-05 1.030945204276857e-05)
(1.00008676214865 6.555604149513607e-05 1.055915663163708e-05)
(1.000002942790712 2.717427766438348e-05 7.611156420577049e-06)
(1.000008905495751 2.761644933636531e-05 7.666843995668365e-06)
(1.000015099117478 2.849292266127189e-05 7.776041462737098e-06)
(1.000021675865479 2.978684600316907e-05 7.934305629796037e-06)
(1.000028784568481 3.147019647303582e-05 8.134759823040353e-06)
(1.000036567756993 3.350059751458627e-05 8.367863592752383e-06)
(1.000045157180173 3.581731573566492e-05 8.621149404364302e-06)
(1.000054667344454 3.833674666327223e-05 8.878970904513332e-06)
(1.00006518675531 4.094789833663692e-05 9.122326233688982e-06)
(1.000076766734756 4.350864105225769e-05 9.328841301448025e-06)
(1.00008940801755 4.584378869651944e-05 9.473018608185231e-06)
(1.000003116655934 1.63915210029752e-05 7.338128808058473e-06)
(1.00000942372941 1.665078843567808e-05 7.385380170134394e-06)
(1.000015951202032 1.716417721475295e-05 7.477697270673196e-06)
(1.000022842850128 1.79207550595406e-05 7.610648712529047e-06)
(1.000030237002973 1.890255020536653e-05 7.777445656923162e-06)
(1.000038262955798 2.008274935237501e-05 7.968797464609619e-06)
(1.000047036029001 2.14234681518039e-05 8.172764505154386e-06)
(1.000056650994547 2.28732992456052e-05 8.374650272545368e-06)
(1.000067173725469 2.436495837253545e-05 8.556989173236272e-06)
(1.000078631143515 2.581349041333357e-05 8.699699152357593e-06)
(1.000090999863245 2.711564863706459e-05 8.780478430336903e-06)
(1.000003202058146 5.478038012831739e-06 7.201815084829923e-06)
(1.000009678151966 5.563440223820586e-06 7.244951093767073e-06)
(1.000016369084106 5.73246056802402e-06 7.329042197135065e-06)
(1.000023414238473 5.981322294698261e-06 7.449680083528198e-06)
(1.000030946562776 6.303848910457815e-06 7.600144777519745e-06)
(1.000039088674938 6.690882101057746e-06 7.7713018792987e-06)
(1.000047947730068 7.129568055149183e-06 7.951510763114092e-06)
(1.000057608834677 7.602583168020735e-06 8.126584030422654e-06)
(1.000068126946473 8.087408179836228e-06 8.279850403877722e-06)
(1.000079517425017 8.555804167717346e-06 8.392382075284084e-06)
(1.000091745712939 8.973689684734785e-06 8.443452551063598e-06)
(0.9999975370993411 9.128791618629695e-05 2.388337872186464e-05)
(0.9999926609970421 9.377016320134936e-05 2.445977638046334e-05)
(0.9999879447316795 9.879429244561723e-05 2.562593782644714e-05)
(0.9999835316173009 0.000106477475723627 2.74080991262694e-05)
(0.9999796234366994 0.0001169893239053695 2.984415344453589e-05)
(0.9999765104084392 0.000130541828687046 3.298124150985522e-05)
(0.9999746073546485 0.0001473710033487437 3.687132947161031e-05)
(0.9999744968012353 0.0001677050316119482 4.156351167168148e-05)
(0.9999769779205924 0.000191711336387639 4.709121397085936e-05)
(0.9999831165393348 0.000219412201861625 5.345186056771031e-05)
(0.9999942847217361 0.000250556190057901 6.057614379970598e-05)
(0.9999987044848728 8.681661446271757e-05 2.17505988298062e-05)
(0.9999961867228344 8.89988150371041e-05 2.221644584827618e-05)
(0.9999938980456958 9.340021401778621e-05 2.315537232897876e-05)
(0.9999920226423693 0.0001000915054255019 2.45811384899751e-05)
(0.999990793688544 0.0001091697201201478 2.651245556024418e-05)
(0.9999905162315937 0.0001207452204808702 2.89701873424729e-05)
(0.9999915925600817 0.000134920497491366 3.197276901562968e-05)
(0.9999945492336187 0.0001517571148547378 3.552904519845353e-05)
(1.000000063082008 0.0001712260138767774 3.962749688990507e-05)
(1.000008980356571 0.0001931355945826533 4.422069146059487e-05)
(1.000022318421169 0.0002170323328128745 4.92039383617193e-05)
(0.9999997192999152 8.08874526764987e-05 1.979050413665042e-05)
(0.9999992445965942 8.276682108977521e-05 2.016263341629049e-05)
(0.9999990374220655 8.654474095076864e-05 2.090983945733125e-05)
(0.9999993011234075 9.225583226768853e-05 2.203728725489009e-05)
(1.000000277151758 9.994210337077391e-05 2.355078741893719e-05)
(1.000002261185815 0.0001096394722925276 2.545415680104281e-05)
(1.000005619249023 0.0001213571559792358 2.774517186527726e-05)
(1.000010802317621 0.0001350477107553804 3.040967658342828e-05)
(1.000018356400322 0.0001505652238718169 3.341336051643271e-05)
(1.000028922858267 0.0001676094527054575 3.669080192740965e-05)
(1.000043220817241 0.000185655197789856 4.013170692156188e-05)
(1.000000583853287 7.373971343605728e-05 1.80249428432781e-05)
(1.00000184401111 7.53259451514297e-05 1.83191817848078e-05)
(1.000003387056876 7.850455745918463e-05 1.890775923700946e-05)
(1.000005420004785 8.328418417557296e-05 1.979021923022626e-05)
(1.000008177328565 8.966825624931521e-05 2.096417421788409e-05)
(1.00001193128421 9.764259152891348e-05 2.242308143291959e-05)
(1.000017000798547 0.0001071572899721992 2.415299603191357e-05)
(1.000023757301507 0.0001181018377953932 2.612810585689291e-05)
(1.000032624823959 0.0001302725078203795 2.830489319727297e-05)
(1.000044070330492 0.0001433318948955253 3.06149192144571e-05)
(1.000058578769426 0.000156762124363808 3.295655537072179e-05)
(1.00000130553163 6.559613798919981e-05 1.646849777305217e-05)
(1.000004009440618 6.690698319736483e-05 1.669925071694664e-05)
(1.000006995661092 6.95261153626754e-05 1.715907090158787e-05)
(1.000010464822195 7.344515175587578e-05 1.784404963389728e-05)
(1.00001463555911 7.864315435392679e-05 1.874694854824421e-05)
(1.000019750219535 8.507607501817586e-05 1.985546630183418e-05)
(1.000026078495285 9.26619445899421e-05 2.114981093459535e-05)
(1.000033917535464 0.0001012614672771774 2.259952982823963e-05)
(1.000043586457423 0.0001106540608366947 2.415961746460302e-05)
(1.000055412474819 0.0001205102101168729 2.576606818176675e-05)
(1.000069705300456 0.0001303624703579375 2.733129959617789e-05)
(1.00000189469849 5.665716229837433e-05 1.513000979659773e-05)
(1.000005773988478 5.771456044563776e-05 1.531008320649736e-05)
(1.000009925225438 5.982175190332907e-05 1.566750558490447e-05)
(1.000014537043778 6.296080911602221e-05 1.619641603234356e-05)
(1.000019808251824 6.709796385871932e-05 1.688698314783448e-05)
(1.000025950074441 7.217516378265425e-05 1.772413563245606e-05)
(1.000033186190806 7.80986202794979e-05 1.868585387349968e-05)
(1.000041749417753 8.472445231558933e-05 1.9741051963118e-05)
(1.000051873566798 9.18419409361358e-05 2.084714728116812e-05)
(1.000063778740016 9.915562947129706e-05 2.194753279187886e-05)
(1.000077648291182 0.0001062686061603266 2.296934214493992e-05)
(1.000002362929776 4.709851558781038e-05 1.401406661916122e-05)
(1.000007174030223 4.792543375505309e-05 1.415467811889229e-05)
(1.000012241909762 4.956954708683024e-05 1.443263255978146e-05)
(1.000017741034148 5.200927862946107e-05 1.484109395520099e-05)
(1.000023849913777 5.520692542949633e-05 1.536906434247245e-05)
(1.000030750875961 5.910225913892739e-05 1.600050504491086e-05)
(1.000038627783822 6.360410583642102e-05 1.671320338853948e-05)
(1.000047660856116 6.858021662536128e-05 1.74774486528996e-05)
(1.000058017634574 7.38460997695162e-05 1.825463699472043e-05)
(1.000069839140042 7.915403665420766e-05 1.899600759163318e-05)
(1.000083220471166 8.418425588041914e-05 1.96418227109465e-05)
(1.000002721616657 3.707149858217723e-05 1.312235829198376e-05)
(1.000008245019981 3.768948614190786e-05 1.323327522761985e-05)
(1.000014009070319 3.891584500882506e-05 1.345160009509208e-05)
(1.000020174422125 4.072977230243661e-05 1.377010806580268e-05)
(1.000026901232337 4.309616375400935e-05 1.417745506735754e-05)
(1.000034347254854 4.596103222565752e-05 1.465760156178333e-05)
(1.000042664148291 4.924563910092605e-05 1.51891077708285e-05)
(1.000051991411679 5.283969741873339e-05 1.574437415041701e-05)
(1.000062447386828 5.659428286261636e-05 1.628894279588196e-05)
(1.00007411689613 6.03154736935851e-05 1.678103005296202e-05)
(1.000087035392534 6.376021573857554e-05 1.717152178448714e-05)
(1.000002980917335 2.670527541779637e-05 1.245483740487812e-05)
(1.00000901837665 2.713266931627528e-05 1.254460065824859e-05)
(1.000015282195925 2.797954549640083e-05 1.272054355592502e-05)
(1.000021921352897 2.922901708696067e-05 1.297536028479179e-05)
(1.0000290811737 3.085313022895687e-05 1.329775881551443e-05)
(1.000036900351305 3.280983277262825e-05 1.367210078622329e-05)
(1.000045506449015 3.503917749667171e-05 1.407799351293981e-05)
(1.000055009499878 3.745906823733539e-05 1.448990711288157e-05)
(1.000065493410849 3.996104725932137e-05 1.487691982005047e-05)
(1.00007700507292 4.240686784928738e-05 1.520272741695197e-05)
(1.000089541403706 4.46268721367686e-05 1.542608535773855e-05)
(1.000003149010557 1.611059735262548e-05 1.201065481145885e-05)
(1.000009519290062 1.636127684479337e-05 1.208685457734677e-05)
(1.000016105418094 1.685748924065604e-05 1.223566819335147e-05)
(1.000023048006859 1.758832947046183e-05 1.2449829584685e-05)
(1.000030482048017 1.853593794403605e-05 1.271821863824114e-05)
(1.00003853330212 1.967378559618186e-05 1.302563818805781e-05)
(1.000047313383762 2.096456129492126e-05 1.335259064658986e-05)
(1.000056913281449 2.235786385909502e-05 1.367512260230796e-05)
(1.00006739518644 2.378801103904102e-05 1.396482837496682e-05)
(1.000078782721003 2.517241119272795e-05 1.418912318640331e-05)
(1.000091049972039 2.641108374417647e-05 1.431191186562763e-05)
(1.000003231596832 5.384486145781734e-06 1.178885892159785e-05)
(1.00000976526854 5.467072414639755e-06 1.185843984750381e-05)
(1.000016509248552 5.63046462373578e-06 1.199402819063173e-05)
(1.000023599801605 5.870902879523747e-06 1.218840458019051e-05)
(1.000031166629826 6.182259366737061e-06 1.243057371307506e-05)
(1.000039328974657 6.555484683320423e-06 1.270560772592692e-05)
(1.000048190527275 6.977931904478972e-06 1.299451064808701e-05)
(1.00005783294962 7.432628201506731e-06 1.327416962677429e-05)
(1.000068307958185 7.897600077910762e-06 1.351747630358026e-05)
(1.000079628145623 8.34539994764747e-06 1.369371629689199e-05)
(1.000091757020017 8.743024699254819e-06 1.376933127388437e-05)
(0.9999978880338593 8.858791613259357e-05 3.234436937385761e-05)
(0.9999937216646794 9.09255006891814e-05 3.310444462028133e-05)
(0.999989738394777 9.56516444488866e-05 3.464054872148734e-05)
(0.9999860958131578 0.0001028657985990837 3.698377270833228e-05)
(0.9999830076368655 0.0001127100481889238 4.017842667769473e-05)
(0.999980771681565 0.0001253581022735049 4.427840197696036e-05)
(0.9999798027938452 0.0001409960708175488 4.934078608615866e-05)
(0.9999806708945287 0.0001597904126513206 5.541517796694151e-05)
(0.9999841423791983 0.0001818365196256013 6.252652827769739e-05)
(0.9999912195248938 0.0002070793771038245 7.064870115996043e-05)
(1.00000316633399 0.000235196401140593 7.966559633976211e-05)
(0.9999989882611097 8.43085887103971e-05 2.948067171873773e-05)
(0.9999970422581042 8.636665772150179e-05 3.009588242490903e-05)
(0.9999953375155344 9.051358242150289e-05 3.133463452980199e-05)
(0.9999940647578995 9.680751218388304e-05 3.321257199262458e-05)
(0.9999934609640979 0.0001053264220315407 3.575040488459816e-05)
(0.9999938304100552 0.0001161550303571472 3.89699945554648e-05)
(0.9999955673909585 0.0001293639080424814 4.288807826209186e-05)
(0.9999991795314552 0.0001449776174287629 4.750667216413248e-05)
(1.000005308793357 0.0001629278875988439 5.279895051568703e-05)
(1.000014744395135 0.0001829874310466644 5.868930631152327e-05)
(1.000028417593568 0.000204680790273382 6.502657893090805e-05)
(0.9999999461028679 7.860367859212609e-05 2.684621035475843e-05)
(0.9999999266583907 8.037868952109274e-05 2.733836616428963e-05)
(1.000000179249239 8.39436456560767e-05 2.832569328435107e-05)
(1.000000908652761 8.932471134024307e-05 2.981321507795487e-05)
(1.000002355155035 9.655137771002235e-05 3.180580977648284e-05)
(1.000004809167583 0.0001056433676394153 3.430463403599457e-05)
(1.000008625380921 0.0001165908785186632 3.730171401290321e-05)
(1.000014234874083 0.0001293263049206233 4.077218988487116e-05)
(1.000022152192816 0.000143685458385137 4.466367462616991e-05)
(1.000032972427567 0.000159356760462725 4.888233156723703e-05)
(1.000047350814985 0.0001758184755260415 5.327574527671566e-05)
(1.000000763272035 7.170272893201185e-05 2.447097644984858e-05)
(1.000002382225169 7.320292963025366e-05 2.486065926179075e-05)
(1.000004283537356 7.620672480974127e-05 2.56395215100505e-05)
(1.000006672489945 8.07173619839489e-05 2.680567260560093e-05)
(1.000009779620393 8.673055014390369e-05 2.835398724880978e-05)
(1.000013869910865 9.42226180987142e-05 3.027314356396373e-05)
(1.000019250328239 0.0001031334135844736 3.254134216561668e-05)
(1.000026274111322 0.0001133430779522462 3.51204916396081e-05)
(1.000035339248898 0.0001246420801155253 3.794871527289629e-05)
(1.000046877412277 0.0001366946809576683 4.09312474094481e-05)
(1.000061328382718 0.0001489976467520512 4.393022522624208e-05)
(1.000001446303565 6.382051632614861e-05 2.237525190426349e-05)
(1.000004430654269 6.506184493252037e-05 2.268125651165989e-05)
(1.000007693681594 6.754027001533986e-05 2.329057317007615e-05)
(1.000011432478098 7.124421246652641e-05 2.419710110679344e-05)
(1.000015860411153 7.614835160443654e-05 2.538986394871338e-05)
(1.000021212031025 8.22036591825986e-05 2.685072514458806e-05)
(1.000027745840777 8.932353170491091e-05 2.855121639240131e-05)
(1.000035743540611 9.736581525055822e-05 3.044844066551145e-05)
(1.00004550379582 0.0001061109096170539 3.248011087415419e-05)
(1.000057327994208 0.0001152369437700249 3.455898148323699e-05)
(1.000071495043176 0.000124294388440167 3.656726612311062e-05)
(1.000002004600639 5.515134177652149e-05 2.057159586309064e-05)
(1.000006101978856 5.615381994507457e-05 2.08106862703827e-05)
(1.000010465904892 5.815023886105181e-05 2.128491827048926e-05)
(1.000015280571541 6.112095261801794e-05 2.198585071599973e-05)
(1.000020739067106 6.503000351538519e-05 2.289945342948107e-05)
(1.000027045090961 6.981720213869184e-05 2.400444755510697e-05)
(1.000034412484311 7.538746453081357e-05 2.527008941699533e-05)
(1.000043061489237 8.159757702967411e-05 2.665345244383814e-05)
(1.000053210377422 8.824095962865183e-05 2.809635331990591e-05)
(1.000065060891102 9.503167966813204e-05 2.952222313612473e-05)
(1.000078775969337 0.0001015899784806815 3.08334489820264e-05)
(1.000002448781734 4.586653105123165e-05 1.906680277663495e-05)
(1.000007429551356 4.6651292929195e-05 1.925370841959752e-05)
(1.000012660814263 4.821063704059335e-05 1.962293095756657e-05)
(1.00001831224275 5.052219883829194e-05 2.016490141793908e-05)
(1.000024556660674 5.354742017582141e-05 2.086429476659957e-05)
(1.000031569492041 5.722557287864877e-05 2.169888936660472e-05)
(1.000039526215665 6.146594890555576e-05 2.263810809211019e-05)
(1.000048597035707 6.613855431821702e-05 2.364133369013066e-05)
(1.000058937898463 7.106398647304035e-05 2.465616631606461e-05)
(1.00007067701306 7.600368731584295e-05 2.561689702833698e-05)
(1.000083896270885 8.065244819195202e-05 2.64436110648524e-05)
(1.000002789362515 3.611451562750339e-05 1.786369282454235e-05)
(1.000008446084846 3.670149369331879e-05 1.801127678744707e-05)
(1.000014336810797 3.786565568385112e-05 1.830159094002723e-05)
(1.000020617354676 3.958594079834842e-05 1.872465899803885e-05)
(1.00002744244115 4.182710849542878e-05 1.92648599393052e-05)
(1.00003496361969 4.453547270782384e-05 1.990018665054561e-05)
(1.00004332546575 4.76334736735632e-05 2.060134806875922e-05)
(1.000052659526797 5.101345090481126e-05 2.133081706667828e-05)
(1.000063075510411 5.453124180954497e-05 2.204198168844468e-05)
(1.000074649352821 5.800058592158604e-05 2.267862641751762e-05)
(1.000087408116611 6.118974209392617e-05 2.317504794939907e-05)
(1.000003035759796 2.602287048270811e-05 1.696265347361796e-05)
(1.000009180691406 2.642908509233555e-05 1.708219442169293e-05)
(1.000015545261371 2.723356461565505e-05 1.731635813939651e-05)
(1.00002227369557 2.841941472112324e-05 1.765512969962609e-05)
(1.000029506192579 2.995884445892261e-05 1.808305955375278e-05)
(1.000037375857208 3.18103497392337e-05 1.857880604290015e-05)
(1.000046004193863 3.391520871742756e-05 1.911462506276602e-05)
(1.000055494803846 3.619359327940881e-05 1.965590566639233e-05)